LAMMPS (7 Aug 2019)
OMP_NUM_THREADS environment is not set. Defaulting to 1 thread. (src/comm.cpp:93)
  using 1 OpenMP thread(s) per MPI task
#temperature in reduced units
variable temp equal 3.0

#number of obstacles to add
variable npart equal 0

#set up basic simulation stuff
dimension 2
units		lj
atom_style	molecular
boundary        f f p

#neighbor settings
neighbor 2.0 bin
neigh_modify every 1 delay 0 check yes

#read input configuraiton  (change to poly5.input to simulate 5 polymers)
read_data poly1.input
  orthogonal box = (-40 -20 -2) to (40 20 2)
  1 by 1 by 1 MPI processor grid
  reading atoms ...
  108 atoms
  scanning bonds ...
  1 = max bonds/atom
  reading bonds ...
  107 bonds
  2 = max # of 1-2 neighbors
  2 = max # of 1-3 neighbors
  4 = max # of 1-4 neighbors
  6 = max # of special neighbors
  special bonds CPU = 7.29561e-05 secs
  read_data CPU = 0.000352859 secs

#add additional particles to box
region box block -20 140 -10 10 -0.001 0.001
create_atoms 2 random ${npart} 358723 box
create_atoms 2 random 0 358723 box
Created 0 atoms
  create_atoms CPU = 1.90735e-06 secs

#all particles has mass 1
mass   *        1

#Type 1 is polymer. type 2 is fixed
group mobile type 1
108 atoms in group mobile

#Weeks-Chandler-Anderson
pair_style         lj/cut 1.12246204830937
pair_coeff         * * 1.0 1.0 1.12246204830937
pair_modify        shift yes

#FENE type bond
bond_style fene
bond_coeff 1 30.0 1.5 1.0 1.0
special_bonds fene
  2 = max # of 1-2 neighbors
  6 = max # of special neighbors
  special bonds CPU = 3.40939e-05 secs

#remove overlap between polymer and obstacles
#minimize 1e-5 1e-5 100 100
#reset_timestep 0

#make pictures
shell "mkdir img"
WARNING: Shell command returned with non-zero status (src/input.cpp:1364)
shell "rm img/*"
dump        img all  image  1000 img/t*.jpg    type type adiam 0.7 bond type 0.8 zoom 1.6 view 0 0
dump_modify img backcolor white  boxcolor black
dump_modify img pad 6

#save video
#dump        video all  movie  100 movie.avi    type type adiam 0.7 bond type 0.8 zoom 1.6 view 0 0
#dump_modify video backcolor white  boxcolor black

fix integrator mobile nve
fix dynamics   mobile langevin ${temp} ${temp} 0.5 252352
fix dynamics   mobile langevin 3 ${temp} 0.5 252352
fix dynamics   mobile langevin 3 3 0.5 252352
fix run2d      all enforce2d

#create wall interactions
fix bot all wall/lj93 ylo -5 5 1 2.5
fix left all wall/lj93 xlo -20 5 1 2.5
fix low all wall/lj93 yhi 5 5 1 2.5

#create region to act as end of tube


#unremark this to simulate elecrophoretic motion along the diagonal
#fix electrophoresis mobile  addforce 1 1 0

# specify timestep
timestep	0.01
thermo    100

thermo_modify lost warn

run 500000
Neighbor list info ...
  update every 1 steps, delay 0 steps, check yes
  max neighbors/atom: 2000, page size: 100000
  master list distance cutoff = 3.12246
  ghost atom cutoff = 3.12246
  binsize = 1.56123, bins = 52 26 3
  1 neighbor lists, perpetual/occasional/extra = 1 0 0
  (1) pair lj/cut, perpetual
      attributes: half, newton on
      pair build: half/bin/newton
      stencil: half/bin/2d/newton
      bin: standard
WARNING: Communication cutoff 3.12246 is shorter than a bond length based estimate of 3.455. This may lead to errors. (src/comm.cpp:685)
Per MPI rank memory allocation (min/avg/max) = 6.173 | 6.173 | 6.173 Mbytes
Step Temp E_pair E_mol TotEng Press 
       0            0   0.49074074    20.644857    21.135598   -0.3028125 
     100    2.9740214  0.012097967    22.093761    25.052343  -0.30942273 
     200     3.148413 0.0041661075    22.173091    25.296518   -0.2829812 
     300     2.504953  0.037223816    22.583328    25.102311   -0.2052553 
     400    3.6892302 0.0010021567    21.907829    25.563902   -0.1613859 
     500    3.5030372            0    21.852025    25.322627  -0.11860394 
     600    2.8497052 0.0014962291    21.613436    24.438252  0.036190494 
     700    3.0903475 6.5327585e-05    21.804901    24.866699  -0.16637683 
     800    3.1859054  0.001959104    21.923401    25.081766  0.075799179 
     900    3.0984544  0.005565777    21.877476    24.952807 -0.058252327 
    1000    3.3323106  0.046698113    21.519613    24.867767 -0.019944436 
    1100    2.5838692 0.0040590133    22.148155    24.712158 -0.097183929 
    1200     2.635649  0.089453148     21.82259    24.523288  0.042444157 
    1300    3.3249078  0.015152985    21.715419    25.024693   0.10829345 
    1400      2.92201  0.013390844    21.545133    24.453479  -0.14328475 
    1500    3.3363113  0.010464305    21.872245    25.188129  0.023856765 
    1600    3.2369242 0.0099161273    21.741772     24.95864 -0.028245427 
    1700    2.8519084 0.0075210534    21.735041    24.568064 -0.071662396 
    1800    2.9862362  0.014878401    21.559096     24.53256 -0.062871448 
    1900    3.1944675  0.013054596    21.689936     24.86788  -0.13823918 
    2000     3.307896  0.025557739    21.630073    24.932898  -0.11921807 
    2100    3.0746905  0.028245437    21.536729    24.611196 -0.0066577624 
    2200    2.7713878   0.04877671    21.759864    24.554367  0.022359184 
    2300    3.0388155   0.02130186    21.537157    24.569138  -0.13556783 
    2400    3.1116307  0.069554684    21.782428    24.934802 -0.050957695 
    2500     3.080412  0.048524584    21.686629    24.787043   0.11200956 
    2600    2.9809402  0.051434199    21.706817    24.711591  0.069901059 
    2700    2.9916301  0.047499924    21.682492    24.693922  0.032405962 
    2800    3.3432882  0.056912414    21.828906     25.19815   0.18072592 
    2900    2.9709113  0.049580347    21.761817      24.7548 -0.036303834 
    3000    2.8655093  0.045849946    21.485535    24.370362  0.057238841 
    3100    2.9987695  0.071946299    21.590908    24.633857 -0.033638793 
    3200    3.3954403 0.0074364873      21.7084    25.079838  0.041009807 
    3300    2.7679844  0.026455715    21.921491    24.690301   0.10665105 
    3400    3.1769834  0.020657581    21.153586     24.32181 0.0026314665 
    3500    2.8738344  0.067460397    21.709913    24.624598   0.06554787 
    3600    2.8469366 0.0071776503    21.627107    24.454861    0.1038774 
    3700    3.3369051  0.043874627     21.92408    25.273962   0.16192235 
    3800    3.0142709  0.010822772    21.543243    24.540427 -0.049401955 
    3900    2.7370161  0.059334658    22.147532     24.91854 0.0035950883 
    4000    2.9367587  0.037750416    21.414841    24.362157  -0.10571698 
    4100    2.6563528  0.042672345    21.774168    24.448597  0.090252999 
    4200    3.1181825  0.031382642    21.475596    24.596289  0.068229756 
    4300    2.7411589  0.087360683    22.234491     25.03763  -0.16576966 
    4400    2.9642041 0.0075593222    21.610208    24.554525   -0.1255101 
    4500    2.6658763   0.13524863    21.329612    24.106052   0.12754565 
    4600    3.1275848    0.0570462    21.494222    24.649894  -0.11663241 
    4700    3.0909299 0.0074287395    21.679046    24.748785 -0.001313735 
    4800    2.9405096  0.014397041    21.601227    24.528906 -0.017251118 
    4900    2.5968995   0.04891212    21.704647    24.326413  -0.11306078 
    5000      3.08807  0.014763204    21.725529    24.799769  0.034897397 
    5100    3.1867045 0.0043068016    21.184572    24.346076 -0.047220114 
    5200    3.2956018 0.0047649065    21.758005    25.027857  0.073026638 
    5300    2.8364505  0.013441245    21.402496    24.226124  0.028241538 
    5400    3.5543701  0.053241499    21.836523    25.411223 -0.022797337 
    5500    3.1167012  0.023189173    21.778522    24.889554  0.087127575 
    5600    3.1358846  0.041744326     21.50759    24.656183 -0.058765829 
    5700    3.4733949  0.036592185    21.259051    24.736877 0.0021782407 
    5800    3.0366855 0.00082064061    21.521966    24.531354  -0.14671955 
    5900    3.0125457  0.013618067    21.832788    24.831058   0.17198638 
    6000    3.2382129  0.053493396    21.668308    24.930031 0.0051033579 
    6100    3.5582215  0.017630226    21.721757    25.264662 -0.024334996 
    6200     3.503722  0.054018603    21.507307    25.032606  0.013818736 
    6300     3.201701  0.029477296    21.827898     25.02943 -0.046100958 
    6400    2.9705374  0.021309783    22.179948     25.14429 -0.075909409 
    6500    2.8727062  0.048218022    21.816865    24.711191 -0.065137469 
    6600     2.973489  0.035429405    21.945464     24.92685     0.110321 
    6700    3.6423018  0.017602193    21.909753    25.535932  0.089020218 
    6800    3.2713348   0.11314006    21.559894    24.914079   0.12327374 
    6900    3.1647307  0.019959228      21.6098    24.765187   0.16293189 
    7000    2.9284347  0.019642345    21.647778     24.56874  0.058581315 
    7100    3.3822372  0.016695123    21.758999    25.126614  0.061764756 
    7200    3.5932366  0.067559501    21.713033    25.340559  -0.10733028 
    7300    3.4106289  0.060533787    21.601256    25.040838  0.099204874 
    7400     2.802168  0.016498756    21.859547    24.652268 -0.065144225 
    7500    3.4262579  0.033267398    21.580401    25.008202  0.064472699 
    7600    3.1129373  0.058974714    21.890751    25.033839 -0.078967193 
    7700    2.7663537  0.033504715    21.380669    24.154913  0.061178676 
    7800    2.9106805  0.064497502    22.036241    24.984468 -0.00044741747 
    7900       3.1599 0.0044562782    21.758675    24.893773 0.00068583572 
    8000    3.1146865  0.022620908     21.88475    24.993218  0.070044287 
    8100    2.8800371  0.023781769    21.845782    24.722934  0.045629061 
    8200    3.0323854  0.029171501    21.785931     24.81941  0.032255497 
    8300    3.2175914 0.0085305634    21.224652    24.420981   0.05845002 
    8400    2.8987984  0.020672415    21.685096    24.577726 -0.026303556 
    8500    3.2173063  0.081652474    21.607496    24.876665  0.092068987 
    8600    2.5475566  0.078033829    21.484053    24.086055   0.10220324 
    8700     3.137601  0.060933433     21.40408    24.573562 -0.063349782 
    8800    3.1028654  0.078578636    21.679206     24.83192  0.077743502 
    8900    3.0862456  0.043276463    21.340581    24.441526  0.070320693 
    9000    3.0074451  0.083519131    21.919178    24.982296   0.13687211 
    9100    3.4960643    0.0534551    21.888895    25.406043 -0.0010494255 
    9200    2.7646427   0.09135693    21.828365    24.658766    0.1114047 
    9300    2.9552472  0.037898261    21.357965    24.323747  0.055672367 
    9400     2.903166   0.10616657    21.796932    24.779383  0.073532896 
    9500    2.7945594  0.072175881    21.455587    24.296447  0.059115146 
    9600    3.0473905  0.023894685    22.040131      25.0832  0.018902478 
    9700    3.0665196  0.041959233    21.498527    24.578612  0.043253453 
    9800     2.806238  0.019979382    21.720586     24.52082  0.039873296 
    9900    3.1947811  0.011861842    21.526966    24.704028  0.072395445 
   10000    2.9808344   0.03965326    21.841376    24.834263  0.054367383 
   10100    3.0540303  0.010895538    21.590564    24.627212  0.099746693 
   10200    3.3742947  0.056832643    21.853747    25.253631  0.069268665 
   10300    3.1636063   0.06491814    21.521847    24.721079   0.15694981 
   10400    3.0889203  0.017235646    21.870356    24.947911  0.021386741 
   10500    3.2335033   0.13399067    21.646397    24.983951  0.052222526 
   10600    3.1111388  0.016692487    22.259503    25.358528  0.021553552 
   10700    2.5663624  0.013470949    21.673465    24.229535 -0.0072567877 
   10800     3.192724  0.088794589    21.590037    24.841994   0.12654823 
   10900    2.7878124  0.094195331    21.787175     24.64337 -0.035757404 
   11000     3.359392  0.023402422    22.176931     25.52862 0.0049332928 
   11100    3.0246092   0.11205129    21.714112    24.822767 -0.028079702 
   11200    3.0529927  0.073779479     21.64465    24.743154  0.064335892 
   11300    2.8205471  0.027607812    21.790586    24.612625  -0.10216543 
   11400    3.7470176 0.0040321215    21.387291    25.103646 -0.0090890661 
   11500    2.9134271  0.061535145    21.629053    24.577039  0.056031035 
   11600    3.4684731  0.063145911    22.151913    25.651417 -0.023625565 
   11700    3.0022749  0.019318044    21.764725    24.758519  0.029436692 
   11800    3.5118722 0.0052724822    22.065862    25.550489 -0.099041447 
   11900    2.8043438  0.044447409    21.717989    24.540814 -0.029124774 
   12000    3.0008156   0.03771097    21.685411    24.696152  0.081143873 
   12100    2.8601839  0.045689987    21.502428    24.381819 0.0077480393 
   12200    2.7375872  0.021013742    21.591199    24.324452 -0.0032789544 
   12300    3.3148347   0.10564066    21.630343    25.020125  -0.10719368 
   12400    3.0253822  0.060692565    22.071023    25.129085   -0.1867843 
   12500    2.8719698  0.011848181    22.049246    24.906472  -0.11330914 
   12600    3.2047353  0.065130904    21.665015    24.905208  0.050478956 
   12700     3.152941  0.060786343    21.480213    24.664746  0.091405537 
   12800    2.9058987  0.020248066    21.952325    24.851565  -0.12702019 
   12900    2.9042872   0.08514175    22.030462       24.993  0.023115662 
   13000    2.7986574  0.031200194      21.8466    24.650544 -0.078543637 
   13100    3.2043886  0.084740945    21.736481     24.99594 -0.010914158 
   13200    3.4327885   0.01085068    21.713806    25.125661  0.013351147 
   13300    2.7838624  0.087782467     21.71168    24.557548   0.10167247 
   13400    3.4057587  0.025165269    21.700732    25.100121 -0.091785063 
   13500    2.7182471  0.048711311     21.53352     24.27531  0.041734584 
   13600    2.8626652  0.024665747    21.920545     24.78137   -0.1116419 
   13700    2.7199779  0.062951868    21.829978    24.587723  0.025356551 
   13800    2.8655915  0.099269058    21.543192    24.481519 -0.044979978 
   13900    3.2322112  0.046671954    21.729555     24.97851  0.059990987 
   14000    3.2222512  0.024967023    21.624042    24.841424 -0.084928884 
   14100    3.0685265  0.079086233    21.506211    24.625412  0.098048808 
   14200    2.8247415  0.041716523    21.665727     24.50603 -0.036706134 
   14300    2.6926852  0.099730842     21.28636    24.053844 -0.078952141 
   14400     2.895213  0.033840333    21.771308    24.673554  -0.16686815 
   14500    2.9559839  0.036440001    21.385773    24.350827  0.045324246 
   14600    3.0327186  0.071757703     20.98602    24.062416  0.015979451 
   14700     2.814026   0.11787503    21.559256    24.465101   0.12512855 
   14800    2.6794121  0.064715346    22.134937    24.854256  0.046677929 
   14900    3.0391307   0.10907717    21.764717    24.884785  0.011250934 
   15000    2.8213721   0.17960854    21.834971    24.809827 -0.048421532 
   15100    2.4323008  0.099430094    21.564791    24.074001 -0.086513224 
   15200    3.2991029   0.01532921    21.473238    24.757123  -0.04996257 
   15300    2.6065015   0.11469195    21.521252    24.218311 -0.00022777799 
   15400    3.4290248  0.037681426    21.699768    25.134724  0.031370139 
   15500    2.8017853   0.11969236    21.550639    24.446174 -0.059374581 
   15600    3.2477175  0.042574209     22.06123     25.32145   0.17603538 
   15700    3.0948975  0.061567577    22.137239    25.265048 -0.048210169 
   15800    2.6245397   0.03107368     21.84244    24.473752 -0.063007777 
   15900     2.960489  0.053911579    21.668275    24.655264   0.12351423 
   16000    3.3906898  0.026184693     21.43878    24.824259 -0.051884372 
   16100    2.9091007  0.060912996    21.405225    24.348303  0.076911152 
   16200     2.771987  0.025178962    22.177297    24.948796  -0.22457717 
   16300    2.7910876 0.0064750604    21.279485    24.051204  0.063815798 
   16400    3.3321831  0.037997775    21.573819    24.913146  0.011144215 
   16500    2.8025889  0.070664452    21.552011    24.399314  -0.11010549 
   16600    3.1945634  0.041368904    21.724087     24.93044   0.15445824 
   16700    3.4000808  0.027482612    21.482034    24.878115  0.063668617 
   16800    3.1326863  0.023253442    21.200696     24.32763   0.10907041 
   16900    2.9076974  0.021053456    21.671273    24.573101 -0.0023074429 
   17000    2.9685525   0.11283429    21.678212    24.732112  -0.10325641 
   17100     3.442035  0.093875624    21.644981     25.14902   0.15566284 
   17200      2.76994 0.0096965656    21.495572    24.249561 -0.0061788792 
   17300    2.9778446  0.025284514    21.557653    24.533209   0.17170039 
   17400    3.0710511  0.029121426    21.672534    24.744271 0.0080034866 
   17500    2.9554795   0.04281483    21.331866    24.302795   0.10805757 
   17600    2.9590427   0.02791478    21.622316    24.581875 -0.028056777 
   17700    2.9231884  0.018516388    21.987553    24.902192    0.3462507 
   17800    3.4114497  0.038586222    21.789341    25.207789  0.029308658 
   17900     3.507505  0.019313413    21.691435    25.185777  0.018956452 
   18000    2.5732423 0.0057420567    21.499653    24.054811 -0.0097928968 
   18100    3.1381837  0.016911956    21.475276    24.601315 -0.00048215205 
   18200    3.0699032  0.026158941     21.81727    24.884907  0.054780054 
   18300    3.2767571   0.13562483    21.726179     25.10822  0.074403606 
   18400    3.0935094  0.021830998     21.48552    24.572217  0.083311953 
   18500    3.6595256  0.043453182    21.482238    25.151333   0.11255171 
   18600    3.4708858    0.0034933    21.920353    25.362594 -0.026314196 
   18700    2.8763774  0.083529675    21.490703    24.423977 -0.0039461695 
   18800    3.4814091  0.012377471    21.635751    25.097302   0.20614349 
   18900    3.2131871  0.052131636    21.715852    24.951419 -0.067119371 
   19000    2.9808838  0.020833402    21.598379    24.572496  0.085226773 
   19100    2.9603892  0.056764674    21.659082    24.648825 -0.046034665 
   19200    3.2578545  0.031158267    21.853964    25.112812    0.0387051 
   19300    3.1457043  0.096554387    21.564731    24.777862   0.13675639 
   19400    2.6365055 0.0087972657    21.467046    24.087937 -0.033400548 
   19500    3.0080765 0.0015139506    21.891723    24.873461  0.057716531 
   19600    2.4978729 0.0036395552    21.402742    23.881126 -0.062453291 
   19700    3.4637083  0.014105079    21.463526    24.909268  -0.10001403 
   19800    3.2508227  0.053675502    21.913159    25.187556   0.06753279 
   19900    3.7145942    0.0337253    21.430469    25.144394   0.13941281 
   20000    2.9371922  0.067731601    22.134197    25.111925  -0.18276352 
   20100    2.9642059  0.030475654    21.479703    24.446938  0.050936721 
   20200    2.9181352 5.6350367e-05    21.922305    24.813477  0.002469855 
   20300    2.9770541  0.040978279    21.522815    24.513282  0.031680459 
   20400    3.2806233  0.044689927    21.923323     25.21826  0.025798191 
   20500     2.919692  0.037267649    21.390426    24.320351  -0.16627823 
   20600    2.5850326   0.11934631    21.708218    24.388661 -0.056921153 
   20700    2.7974677  0.050562365    21.673428    24.495555  -0.11291374 
   20800    2.8294201  0.023841613    21.567522    24.394586 -0.042173492 
   20900     3.157688  0.032018887     21.68204    24.842509  0.026238282 
   21000      2.93866  0.061564273    21.562052    24.535067  0.090824386 
   21100    3.2481116  0.044614626    21.580591    24.843242   0.16249776 
   21200    3.0288247 0.0086909093    21.903027    24.912498 -0.060013519 
   21300    3.1936261  0.037464455    21.783957    24.985477 0.0093613641 
   21400    3.3463634  0.070618388    21.816411    25.202408 -0.091352109 
   21500    3.1270511  0.016057285    21.891884    25.006038 -0.042128491 
   21600    2.9327605  0.043676637    21.860446    24.809728   0.10771176 
   21700    2.8911673  0.038320282    21.473861    24.376579   0.17791129 
   21800    3.3821696 0.0073712675     21.61096    24.969184  0.015331696 
   21900    3.0636208   0.03452646    22.246433    25.316213  0.033902857 
   22000     3.192603  0.053967753    22.125013    25.342022  0.029904531 
   22100    2.8963406  0.043284427    21.750305    24.663112  0.038903546 
   22200     3.310911   0.14922446    21.450918    24.880397 -0.0030710727 
   22300    3.1296795 0.0093227897    21.904044    25.014068  0.067392357 
   22400    3.1028349  0.049857513    21.779097    24.903059  0.099251975 
   22500    3.1145798  0.060855029    21.736245    24.882842   -0.0325929 
   22600    3.0863241  0.052632501    21.568356    24.678735   0.13333309 
   22700    2.7715948 0.0089111791    21.598075    24.352918 -0.022731697 
   22800     3.160716  0.059534546    21.693663    24.884648   0.10356422 
   22900    3.2261978  0.078529173    21.863131    25.137985   -0.1367829 
   23000    2.6999746  0.026746424    21.716448     24.41817  0.048465699 
   23100    2.9317521  0.032254745    21.735967    24.672828 0.0098694004 
   23200    3.2003929  0.035254711    21.960132    25.166147 -0.022583328 
   23300    2.9507229  0.024635307    21.913056    24.861092  -0.22311294 
   23400    2.6841993  0.049758438    21.254485    23.963589   0.11220953 
   23500    2.8181387 0.0017168979    21.958168     24.75193  -0.13786999 
   23600     2.925548  0.078469758    22.153231    25.130161   0.12315091 
   23700    3.3856127  0.056202349    22.208401    25.618868  -0.10356851 
   23800    3.1596802  0.011501756    21.798826    24.940752 -0.031481388 
   23900    2.8828478  0.012329786    21.815872    24.684356 0.0078621136 
   24000     2.809519   0.12316464    21.632239    24.538908 -0.042670394 
   24100    3.5859238  0.033250717    21.624611    25.210582  0.061484245 
   24200    2.9223077  0.096059644    21.397102    24.388411   0.06377235 
   24300      3.00902 0.0064510823    21.775424    24.763034 -0.010941607 
   24400    2.6519238 0.0072634491    21.554184    24.188817   0.11949961 
   24500    3.0831768  0.032945718    21.893737    24.981312 0.0020861239 
   24600      3.16182 0.0035653883    21.419044    24.555153  0.034141925 
   24700    2.6778011    0.1139499    21.499063     24.26602   0.10625177 
   24800    3.1593998  0.039633333    21.851872    25.021651  -0.12182374 
   24900    3.1202608  0.035785275     21.41356    24.540715 -0.077863885 
   25000    2.6693243  0.023819362    21.848867    24.517295  0.025544896 
   25100    3.0444592  0.015840248    21.723307    24.755417  -0.10559371 
   25200    3.0404969   0.01472326      21.8592    24.886267  -0.11301162 
   25300    3.2141522  0.049342855     21.61535    24.849084  0.042359716 
   25400    2.8397925  0.067735618    21.576687    24.457921  0.063874835 
   25500    2.9123434  0.014813414    21.731928    24.632118 -0.037361511 
   25600    3.1299943  0.085847629     21.84502     25.03188  -0.15903191 
   25700    3.2786758  0.007819362    21.537383     24.79352   0.10297244 
   25800    2.8223773  0.045018935    21.895617     24.73688  0.048917034 
   25900    2.9442578  0.033648994    21.616295     24.56694   0.10739951 
   26000    3.6053704 0.0097687611    21.312564     24.89432   0.09620183 
   26100    3.1963542  0.048208137    21.800701    25.015667    0.1078824 
   26200    3.2567122  0.037478501    22.005328    25.269364 -0.071464641 
   26300    2.7981093   0.12294225    21.882964    24.778107 -0.050618506 
   26400    2.8026395  0.025320497    22.006683    24.808693  -0.12427547 
   26500    3.4807727  0.014165375    21.661192    25.123901  0.020805144 
   26600    3.5346484 0.0096176152    21.624666    25.136204 -0.011721299 
   26700    2.8582288  0.018436817    21.346359    24.196559  0.027208432 
   26800    3.1975581  0.038279609    21.803307    25.009538  -0.01434406 
   26900    3.3378806 0.00040611809    21.856798    25.164179  -0.11100673 
   27000    3.1662343  0.048949152    21.628599    24.814465     0.050664 
   27100    3.2259377  0.030943164    21.400877    24.627888  0.044301023 
   27200    2.5744608  0.025027146    21.701319     24.27697  0.091972595 
   27300    3.4104477 0.0091912295    22.160098    25.548158   0.18635974 
   27400    2.7251858 0.0085094566    21.416641    24.125103   0.02958469 
   27500    3.1224544   0.10727823    21.986691    25.187512  0.049872771 
   27600    2.9609511 0.0031120124    21.761686    24.698333 -0.0061886857 
   27700    2.7105772  0.050671327    21.404453    24.140604 -0.082817029 
   27800    2.9612311  0.023703434    21.782168    24.739684 -0.028837859 
   27900     2.644724  0.058975464    21.477918     24.15713  -0.11082836 
   28000     2.709336  0.062299492    21.731784    24.478333 -0.084514996 
   28100    2.8876451   0.12279428     21.43922    24.422922  0.013925068 
   28200    3.7143048  0.070663375     21.68452    25.435097   0.10330809 
   28300    2.9834065  0.040654963    21.491372    24.487809  0.085713281 
   28400    3.3735595  0.037183584    22.115012    25.494519 -0.020784299 
   28500     3.006486  0.027758505    21.440253    24.446659   0.22365278 
   28600    2.9620569  0.029260345    21.417804    24.381695  -0.08309488 
   28700     2.877312 0.0055401133    21.874461    24.730671  -0.12326133 
   28800    3.3477172  0.082895432    22.116201    25.515816 -0.025161966 
   28900    2.8314674  0.077661035    21.997938    24.880849  0.095228829 
   29000     2.744741  0.052902176    21.410569    24.182798  0.048268858 
   29100    2.5029057  0.025882469    21.674989    24.180602 -0.073076538 
   29200    3.3996775  0.085056844    21.245894     24.69915  0.057364024 
   29300    3.3742778  0.020146142    21.853609     25.21679   0.03685824 
   29400    3.5266172  0.097540536    21.617168    25.208671   0.17773691 
   29500    2.9855562  0.017026033    21.615921    24.590859   0.16509657 
   29600    3.1053486  0.092470733    21.467723    24.636789 0.0075847501 
   29700    2.8612202   0.03846015    21.522157    24.395345    0.1182052 
   29800    3.1396262  0.055999968    21.541707    24.708263   0.13078572 
   29900    2.9309891  0.019612865    21.907471    24.830934  0.091243439 
   30000    2.5963867  0.023386278    21.454178     24.04991   0.14298832 
   30100    3.0066007 0.0033058327    21.834037    24.816105 -0.020363041 
   30200    2.9271305 0.0023248119    21.561844    24.464196 -0.026231575 
   30300     2.578033   0.03664409    21.912188    24.502994 -0.066921728 
   30400    3.3660666   0.14496303    21.633376    25.113238  0.065287887 
   30500    2.8520946  0.020322389    21.473983    24.319992  0.055753431 
   30600    3.0804147  0.007464105    21.568199    24.627555  0.025217275 
   30700    2.9953413  0.047705095     21.60071    24.616022 0.0026240497 
   30800    3.3909116 0.0087532846    21.636396    25.004664 -0.024863082 
   30900    2.8282717  0.024191731    21.750609    24.576885 0.0053197354 
   31000    3.0580495  0.010730037    21.793145    24.833609 -0.008525072 
   31100    3.1216938   0.20527092    21.456658    24.754719   0.13420187 
   31200    3.0780887  0.029960325    21.727442    24.806991  0.060867038 
   31300    3.1600979  0.022350248      21.6666    24.819788 -0.094876742 
   31400    3.2989086  0.038772297    21.488788    24.795923  0.060928346 
   31500     2.789205 0.0013974023    21.697756    24.462533    0.1571327 
   31600    2.6708829   0.10464218    21.813194    24.563988 -0.010375787 
   31700    3.3877019  0.047727396    21.301165    24.705227   0.06318205 
   31800    2.9329329  0.065410922    21.435415    24.406602 -0.028424633 
   31900    3.2856697  0.005497332    21.592474    24.853218 -0.005082138 
   32000     2.873843  0.058325392    21.597758    24.503316 0.0018416283 
   32100    3.2318124 0.0020006067    21.602592    24.806481  0.013992435 
   32200    3.1718363  0.024428333    21.976405    25.143301  -0.15287161 
   32300    3.3218892  0.023977354    21.747616    25.062724  0.035755599 
   32400    3.3839319  0.043800807    21.742675    25.139075 -0.0015022628 
   32500    2.9854542  0.047405795    21.700702    24.705919   0.12301275 
   32600    2.7675248  0.012819662    21.551956    24.306675 -0.096872443 
   32700    2.4451926  0.021189285    21.556225    23.999967  -0.03940689 
   32800    3.1693032  0.044894394    21.785447    24.970299  0.051088037 
   32900    2.2795932  0.035351038    21.767307    24.061144  -0.17049159 
   33000    3.2863804  0.059915602    21.757146    25.073013    0.1253459 
   33100    2.8805775  0.038697448    21.705644    24.598247 -0.044221413 
   33200    3.0046127  0.054247482    21.535931    24.566971  0.051003785 
   33300    2.7324131  0.013163616    21.505714    24.225991   -0.2243014 
   33400    3.1152302  0.078574063    21.575262    24.740222   0.11657287 
   33500    3.2583906  0.026276904    22.121877    25.376375 -0.047106615 
   33600    2.7375265   0.11332258    21.706532    24.532034   0.04284684 
   33700    2.7665619  0.018318574     21.71017    24.469434 -0.021286783 
   33800    3.5614296  0.055497379    21.878628    25.462579  0.068427079 
   33900    2.8009957  0.062839425    21.934038    24.771938   0.05392522 
   34000    2.4253936  0.051223764    21.738419    24.192579  -0.11965484 
   34100    3.2608259  0.072171235    21.824704    25.127509  0.049392217 
   34200    3.5292415  0.024100453    21.683938    25.204602    0.0515416 
   34300    3.0018634  0.023459507    21.834211    24.831739 -0.042758334 
   34400    2.4238906   0.19708226    22.125046    24.723575   0.13893303 
   34500    4.0302974   0.07317275     21.49953    25.565683  0.061275254 
   34600     2.930807  0.014365253    21.992237    24.910272 -0.050231908 
   34700    2.5523365 0.0047027489    21.554893      24.0883  0.074387233 
   34800    2.9565836  0.010263762    21.353558    24.293029 -0.0023062322 
   34900    2.5117157   0.15720774    21.454257    24.099924   0.16253026 
   35000    3.0362924  0.057597189    21.728631    24.794407     0.196787 
   35100    2.8303165  0.052763717     22.14953    25.006403  0.080362314 
   35200    3.0885761  0.039715637    21.573765    24.673459  0.094583908 
   35300    3.2059428  0.038900488    21.489348    24.704507 0.0073137093 
   35400    2.9450457  0.058571604    21.828202    24.804551   0.13903659 
   35500    2.9895387  0.020998596    21.418616    24.401473 -0.0068352606 
   35600    3.1765222  0.012499847    21.927383    25.086993 -0.034698975 
   35700    2.7968711  0.039939083     21.62356    24.434473 -0.021132487 
   35800    2.9064987   0.01533665    21.724782    24.619705 -0.016375895 
   35900    2.2433711   0.14466299    21.672842    24.040105   0.12819649 
   36000     2.848626  0.034296288    21.741318    24.597864 -0.027106074 
   36100    3.5936657  0.023509315    21.735975    25.319875   0.14689003 
   36200    3.2749082  0.014529527    21.547602    24.806716 -0.031013807 
   36300    2.8158534  0.080807242    21.296559    24.167147  0.062161295 
   36400    3.4497846  0.027828928     21.73985    25.185521   0.12011555 
   36500    2.9126895  0.087246389    21.243181    24.216147   0.14538666 
   36600    2.2054664   0.06310792    21.886995    24.135148 -0.045298487 
   36700    2.9396285  0.018552755     21.81453    24.745493  0.041947095 
   36800     2.995138  0.019068142    21.368681    24.355155 -0.015563813 
   36900    3.2990401    0.0495394    21.722107     25.04014   0.11904621 
   37000    3.0502351  0.085396763    21.862758    24.970147   0.08131648 
   37100    2.6251422  0.044527268     21.64989    24.295253  0.094725537 
   37200    2.8381065  0.033657107    21.548108    24.393593 -0.092378386 
   37300    2.9227975  0.058072812    21.912945    24.866753   0.10477555 
   37400    2.8645227  0.069477403    21.512707    24.420184 -0.0069913099 
   37500    3.1636896  0.032274194    21.446646    24.613316   0.15277693 
   37600    3.2030888  0.016305158    21.442645    24.632381  0.015363318 
   37700    3.5477198  0.089375187    22.317229    25.921474 -0.054327538 
   37800    2.9017412   0.03716161    21.696327    24.608362 -0.082934964 
   37900    3.0247507  0.045274482    21.424744    24.466762 -0.034030847 
   38000    2.7429334   0.13282779    21.303478    24.153842   0.10746406 
   38100    3.0650015  0.086004047    21.505477    24.628103  0.046494971 
   38200     3.108165  0.048701702    21.833732    24.961819  -0.12808911 
   38300    3.1470608  0.072978722     21.47486     24.66576  -0.09694422 
   38400    3.3863126    0.0828572    21.249331    24.687146   0.15307877 
   38500    3.3034751  0.051764081    21.488033    24.812684 -0.048348158 
   38600    2.8517987   0.18355891    21.498208     24.50716   0.13442819 
   38700    3.3057739  0.076045617    21.809219     25.16043  0.069213323 
   38800    2.7200725  0.058386487    22.386725    25.139998   0.11854329 
   38900    3.2713467  0.038635474    21.430543    24.710235   0.11532178 
   39000    2.8566095 0.0038426828     21.46055    24.294552    0.0497489 
   39100    3.1663424  0.027299214    21.606657     24.77098  0.036731123 
   39200    3.4344053   0.10682534    22.245501    25.754932  -0.10707919 
   39300    3.1185408  0.045176451    21.617339    24.752181 -0.0044859689 
   39400    2.9875206  0.014248769    21.542633     24.51674 -0.055929989 
   39500    2.7196199 0.0044579615    21.751313    24.450209  -0.11270844 
   39600    3.2495038  0.042497528    21.433992    24.695905  0.018207736 
   39700    3.3765424   0.12982488    22.012107     25.48721   0.10296209 
   39800    3.2095664  0.040492237     21.57675     24.79709   0.10525011 
   39900    2.6572708   0.03898794     21.46928    24.140934  0.050503429 
   40000    3.0763144  0.010345499    21.880517    24.938692  0.029324021 
   40100    2.9900274  0.022721056     21.49512    24.480183 -0.063300657 
   40200    2.7516469  0.021454543    21.249282    23.996905  0.045655801 
   40300    3.1828404  0.029450064    21.633411    24.816231   0.29294965 
   40400    3.3210509  0.020379704    21.492863    24.803543 -0.063449805 
   40500    2.8741129  0.058309542    21.722364    24.628174  0.062012833 
   40600    3.5816493  0.032402896    21.810985    25.391874  0.048268958 
   40700    3.4012759  0.087247202    21.783462    25.240492  0.070142195 
   40800    2.7433416  0.080786429    21.755625    24.554351 -0.056960108 
   40900    2.9101899  0.013579244     22.01684    24.913663 -0.039694589 
   41000    2.4557263  0.075961363    21.931061    24.440011 -0.080755684 
   41100    2.9920446 0.0038595053    21.280411    24.248611 -0.081403704 
   41200    3.0958833 0.0076978553    21.749509    24.824424 -0.037584968 
   41300    3.0320275  0.010190349    21.644549    24.658693 -0.091910273 
   41400    2.9729373 0.0072460242    21.500673     24.45333  0.097343913 
   41500    3.1935621  0.086535617    21.967639    25.218167   0.16169449 
   41600    2.5256526   0.09492487    21.569348     24.16654 -0.089553766 
   41700    2.7863186 0.0084225332    21.899205    24.668146  -0.17295195 
   41800    3.0574399  0.021973325     21.62228    24.673383 -0.058394188 
   41900    2.8739918 0.0026686299    21.420843    24.270893  -0.11366878 
   42000    3.2659304 0.0064663109    21.295896    24.538052   0.12731946 
   42100    2.7642064   0.09763262    21.614378    24.450622  0.052279659 
   42200    3.0379655 0.0062273527      21.7383    24.754363  0.087808048 
   42300    3.4500484  0.014576935    21.648251    25.080931   0.01299659 
   42400    2.9163211  0.033767907    21.596257    24.519343   0.10248537 
   42500    3.5166429  0.010080175    21.457693    24.951855  0.014137196 
   42600    2.7500458 0.0060966731     21.57931    24.309989   0.15688229 
   42700     3.475609  0.085288342    21.833868    25.362584 -0.035666971 
   42800    3.0201494  0.098435145     21.82727     24.91789  0.066740607 
   42900    2.9635496  0.018838324    21.735577    24.690525  -0.14745881 
   43000    2.5644907  0.025028809    21.821594    24.387368 -0.033094136 
   43100    2.9073283   0.16853803    21.538409    24.587356  0.084571623 
   43200    2.6468127  0.015653288    21.448705    24.086663 -0.041146492 
   43300    2.9656354  0.044201313    21.167512    24.149889  0.040122342 
   43400    3.2445636  0.026679206    22.037829    25.279029  0.083095863 
   43500    2.7077651  0.016224911     21.86195    24.560868 0.00069917741 
   43600    3.0429227  0.022149605    21.712368    24.749265  0.064821982 
   43700    3.1280794  0.083551025    21.632068    24.814735 -0.053212883 
   43800    2.9616879  0.027558044    21.401113    24.362936 -0.0017882955 
   43900    3.1988926  0.078321118    21.580767    24.828361   0.18076725 
   44000    2.8982201  0.066025011    21.530602    24.468012  0.095571778 
   44100    3.1326608   0.06177099    21.742946    24.908371  0.090631184 
   44200     3.271575 0.0038950067    21.703616    24.948794 -0.073141564 
   44300     2.712414  0.054378959    21.707475    24.449153   0.12933294 
   44400    3.1203253   0.13849419    21.752212     24.98214   0.10570122 
   44500    3.2156448     0.026876     21.61644    24.829186  0.050585603 
   44600    2.9291131  0.050377797    21.762766    24.715135  0.096690444 
   44700    2.4751369  0.055857457    21.544682    24.052758  0.078456891 
   44800    2.6206418  0.017635259    21.632978     24.24699  0.038913526 
   44900    2.9979828  0.039859035     21.90733    24.917413 -0.069110887 
   45000    2.7566328  0.026598165    21.516916    24.274622 -0.071024659 
   45100    2.8119907  0.060262825    21.400094    24.246311 -0.029186194 
   45200    2.8303083  0.055888789    21.559044    24.419034  -0.02650112 
   45300    3.2525735  0.077710327    21.506497    24.806665  0.074272135 
   45400    2.7228758   0.05882781     21.88711    24.643601 -0.072469086 
   45500    3.3104915  0.037439404    21.842321      25.1596 -0.038019067 
   45600    3.0501571 0.0066757577    21.653038    24.681629 -0.084015539 
   45700    2.8427048   0.12157974    21.807593    24.745556   0.21190816 
   45800    3.2763865  0.048173555    21.614641    24.908864  -0.10428455 
   45900    3.0526696  0.016018746    21.830352    24.870775 -0.033108572 
   46000    3.1179269   0.16152879    21.916407    25.166993  0.068301615 
   46100    3.1856341  0.075771464    21.416853    24.648762  0.062260116 
   46200    3.3622962  0.038749204    21.471254    24.841168 -0.020410678 
   46300    3.0076138  0.028204413    21.351627    24.359597  0.051218311 
   46400    3.3573164  0.087106496    21.775795    25.189132 -0.034533096 
   46500    2.8228475  0.029722119    21.757419    24.583852  -0.14482174 
   46600    3.2655304  0.069746343    21.576098    24.881138  -0.02033575 
   46700     2.833816  0.084638634    22.087849    24.980065 -0.056718083 
   46800    2.7762255  0.088640567    21.929774    24.768935  0.055879012 
   46900    3.3803865  0.076219976    21.758667    25.183973   0.04126043 
   47000    3.1358073  0.069088536    22.019999     25.19586 -0.037004825 
   47100    2.9289925   0.12634536     21.67866    24.706877  0.087790514 
   47200     3.179506   0.15391256    21.621884    24.925863  0.053537812 
   47300    2.8969429    0.0376421    21.825208    24.732969 0.0053712687 
   47400    2.6863428  0.028354103    21.705615    24.395439  0.014623849 
   47500    2.7250715  0.023813047    21.759056    24.482708   -0.1006899 
   47600    3.1546271 0.0036071234    21.474491    24.603515 -0.010995238 
   47700    2.8082374  0.039123555    21.418007    24.239366  0.011767304 
   47800    2.5976163 0.0073813593    22.047262    24.628208   0.02211606 
   47900    3.2138467  0.036075037    21.741681    24.961845 -0.062314747 
   48000    3.2302415  0.013506531     21.91393    25.127768   0.23357406 
   48100    2.9214879  0.037681544    21.833246    24.765365  -0.19492902 
   48200    2.5124267  0.043605996    21.942115    24.474884  -0.19320584 
   48300    3.2907729   0.01211677    21.647026    24.919446  -0.02220831 
   48400    2.6117774 0.0012059072     21.46679     24.05559 -0.076070714 
   48500    3.2831056 0.0052773043    21.728886     24.98687 -0.052482164 
   48600    3.2281679   0.03669724    21.946784    25.181759   0.11851861 
   48700    3.7610564  0.011386762    21.500696    25.238315  0.064903608 
   48800    2.9754401 0.0017867493    21.940346    24.890023  -0.12232742 
   48900    2.8054125   0.05960402    21.813067    24.652107  0.004559855 
   49000    2.8971701  0.045993402    21.589769    24.506106   0.21119177 
   49100    3.2500144  0.056939626    21.620754    24.897616   0.10108027 
   49200    3.0770643  0.031731152    21.950655    25.030959   0.13628756 
   49300    2.5803068  0.092501163    21.576696    24.225612 -0.080023917 
   49400    2.6211418 0.0023493609     21.63279    24.232012 -0.030683487 
   49500    2.8666358   0.02506538    21.322705    24.187863    -0.020667 
   49600    2.9732831  0.065356284    21.642501     24.65361  0.010267438 
   49700     2.902454  0.017829619    21.537027    24.430436  0.023621473 
   49800    2.4362331   0.10348958    21.447612    23.964777   0.21287844 
   49900    3.1330403  0.050303796    21.389836    24.544171 0.0033348658 
   50000    3.2345117  0.026341589    21.599579    24.830483   0.10278209 
   50100    2.9415141  0.032005668    22.131032    25.077315  0.050674708 
   50200      3.46833  0.080600409    21.718812    25.235628 -0.0093096738 
   50300    2.9413656  0.026682112    21.673742    24.614555 -0.0066776514 
   50400     3.105252  0.082678596    21.482057    24.641235   0.10133315 
   50500    3.3196377   0.09950257    21.631786    25.020189 -0.029571512 
   50600    3.3341536  0.076668348    21.863477    25.243427 0.0057985829 
   50700    2.7061417  0.028548203    21.479267      24.1889  0.009780351 
   50800    3.1203525   0.22029363    21.592325    24.904079 -0.023694991 
   50900    2.8773246  0.060452235    21.560793    24.471928  0.067294846 
   51000     3.352964   0.19638376    21.649173    25.167475    0.2235499 
   51100    3.1444581 0.0071218092    21.761866     24.88433  0.075711671 
   51200    3.3016801  0.017965318    21.381069    24.670143  0.033027328 
   51300    2.8257722 0.0016317458    21.850727    24.651967 -0.089623123 
   51400    3.1821879 0.0066291366    22.064782    25.224134 -0.027392906 
   51500    3.0520766   0.10287156    21.866501    24.993189  -0.13192737 
   51600    3.3135216  0.046202728    21.708934    25.037978 -0.072596307 
   51700    2.8977135  0.043986178    21.754444    24.669313  0.018820781 
   51800    3.4521959  0.035261317    22.084255    25.539747 -0.060992953 
   51900    3.8513992  0.073815438    21.502186    25.391739  0.081930007 
   52000      2.78325  0.017166034    21.671635    24.446281  -0.15931006 
   52100    3.2220832  0.015762894    21.548431    24.756443  0.027592553 
   52200    3.0966855  0.025025155    21.436257    24.529294  0.053797237 
   52300     2.919178  0.011874133    21.617616    24.521638   0.08720368 
   52400    2.7233384  0.030170911    21.419107      24.1474  0.033033798 
   52500    2.6267807  0.056375654    21.869613    24.528447  0.094908521 
   52600    2.9891447  0.050166557    22.042785    25.054419 -0.065674557 
   52700    3.3379678  0.076224018    21.718827    25.102111 -0.085085493 
   52800    3.1028792    0.1495084    21.713335    24.936992 -0.038548426 
   52900    3.0560395 0.0074448893    21.222121    24.257309    0.1039592 
   53000    2.8884861   0.08779347    21.839946     24.78948   0.13167551 
   53100    3.8246395 0.00030057376    21.711937    25.501464   0.11966546 
   53200    3.0980211   0.00318598    21.822854    24.895376   0.18094085 
   53300    2.9658934  0.053115886    21.842927    24.834474  -0.15683964 
   53400    3.6469794    0.0562664    21.620703     25.29018   0.10989413 
   53500     2.944479  0.065111915    21.459132     24.44146  0.033951202 
   53600    2.9713099  0.019667852    21.441935    24.405401   0.10614554 
   53700     2.943618   0.11740368      21.5485    24.582266   0.11052417 
   53800    2.7038531  0.060192374     21.75321    24.492219   0.10829446 
   53900    3.3508573  0.058076298    21.336406    24.714314  -0.10390494 
   54000    2.6712061  0.045673455    21.683111    24.375257  0.024384196 
   54100    3.2575164  0.041722616    21.566913     24.83599 -0.012696042 
   54200    3.3906864  0.062265594    21.674798    25.096355   0.09884098 
   54300    2.3821964  0.095758128    21.629528    24.085425   0.18586681 
   54400    2.8389429  0.066874981    21.556837    24.436369  0.067345182 
   54500    2.9455424   0.10518577    21.621552    24.645007  0.064443484 
   54600    3.2808338   0.10786636    21.771769    25.130091   0.12304073 
   54700    3.4308693  0.064746068     21.64543    25.109278   0.17924764 
   54800    2.5725391  0.028284493    21.757889    24.334892   0.13812805 
   54900    3.9588299  0.045659218    21.580741    25.548574 -0.017406889 
   55000    2.7631544  0.060718725    21.851053    24.649342 -0.046304143 
   55100    2.9776685  0.097686163    21.770298    24.818082 -0.072955208 
   55200    3.1941585  0.028615977    21.543982    24.737181  0.028808707 
   55300    2.5282937  0.067639866    21.728489    24.301013  0.041473325 
   55400    3.1398826   0.12820647    21.833916    25.072933  -0.13957613 
   55500    2.7489153   0.13811372    22.077431    24.939007   0.25013956 
   55600    3.1505446  0.052558481    21.243344    24.417276  0.085076999 
   55700    2.7768671  0.057565279    21.881661    24.690382  -0.14320459 
   55800    3.0433001 0.0080874729    21.655607    24.678816  -0.01223167 
   55900     2.732125  0.037766785    21.845769    24.590363  -0.10685476 
   56000    2.5092149  0.029981876    21.577917     24.09388 -0.055653697 
   56100    3.3736114  0.036398687     21.62895    25.007723   0.13703741 
   56200    2.8777996   0.17984271    21.634249    24.665245  0.041295668 
   56300    2.9512124  0.041506621    21.738272    24.703665  -0.10774869 
   56400     3.223559    0.0262477    21.216872    24.436831   0.14498582 
   56500    3.8255443 0.0068566127    21.784983    25.581962   0.11136483 
   56600    3.1576771  0.010602221    21.607712    24.746754  0.096324944 
   56700    2.7491226  0.038741788    21.307496    24.069906  0.069278419 
   56800    2.9826188   0.11401242    21.480004    24.549018  0.073222446 
   56900    3.2179648  0.039542591    21.345789      24.5735 -0.085905333 
   57000    2.6305771  0.011080743    21.533572    24.150873  -0.12093946 
   57100    3.2130603  0.036455183    21.795685     25.01545  0.044522972 
   57200     2.714334   0.04016064    21.663107    24.392469 -0.012536866 
   57300    2.9413367  0.037468148    21.818971    24.770541  0.085164582 
   57400    2.5702654  0.059199485    21.814374     24.42004  -0.10994967 
   57500    3.2789737  0.012498783     21.73619    24.997301 -0.029780028 
   57600    3.0058833  0.061935647    21.474148    24.514135   0.11831146 
   57700    3.0557507  0.069797534    21.960977    25.058231 -0.091667784 
   57800    2.9037426  0.046890717    21.685824    24.609571  0.083485168 
   57900    3.0642324 0.0042354944    21.547683    24.587778  0.030244378 
   58000     3.280506  0.042541474    21.598487     24.89116  0.087673772 
   58100    2.8007385    0.0124587    21.569377    24.356641 -0.089008352 
   58200    2.7224913  0.066062492    21.631858    24.395204   0.12491738 
   58300    3.0053993  0.040139517    22.063883    25.081594 -0.082804148 
   58400    3.0216912   0.12826859    21.890841    25.012822 -0.028588061 
   58500    2.9526553  0.030381424    21.447368    24.403065  0.062178255 
   58600    2.9238692 0.0030353024    21.313061    24.212893 -0.00035341566 
   58700    2.4736929  0.025804919    21.515316    23.991909  0.041280101 
   58800    2.9131238  0.034995743     21.89148    24.812626  0.049221623 
   58900    2.9995492  0.044673334    21.751396    24.767845  -0.07594647 
   59000    3.2813419 0.0064399219    21.772268    25.029667   0.03477954 
   59100    3.2749478  0.086201635    21.743931    25.074757  -0.19011138 
   59200    3.0003077  0.053024714    21.598946    24.624498 -0.0013409046 
   59300    2.9837775  0.082999953    21.540722    24.579871  0.018965761 
   59400    2.9819832  0.017572641    21.430024    24.401969  0.053190821 
   59500    2.9177545  0.014833658    21.659054    24.564626 -0.089162455 
   59600    3.1011637  0.052781656    22.045131    25.170362  -0.24136655 
   59700     3.122815  0.046009158    21.521353    24.661262   0.10733894 
   59800    3.0789208  0.051810341    21.824735    24.926957 -0.0031380779 
   59900    3.1930894   0.18087362    21.210055    24.554452  0.091013837 
   60000    2.7712594  0.017824479    21.709969    24.473393 -0.015000592 
   60100    2.4304632  0.062251544    21.702501    24.172711  -0.11629712 
   60200    2.8145682  0.020062763    21.458419    24.266989 -0.049311018 
   60300    2.8025881 0.0066973489    22.083671    24.867007  0.033564868 
   60400    3.2225395  0.063342466    21.673632    24.929676   0.16572453 
   60500    3.1888613  0.028458691    21.368669    24.556463  0.010134853 
   60600     3.135494   0.17128998    21.578463    24.856215   0.20118726 
   60700     3.138245  0.035653623    21.581711    24.726551 -0.018165081 
   60800    3.0486071 0.0036621169     21.28991    24.313952  0.085931661 
   60900    3.3461267   0.11714396    21.815057    25.247345   0.13272197 
   61000    3.1346287  0.026533486    21.816949    24.949087 -0.066860421 
   61100    2.4192809  0.057334231    21.924436    24.378651 -0.021014058 
   61200    3.2610928  0.075040372    21.670495    24.976433   0.11695886 
   61300    3.2795204  0.028883985     21.86057    25.138609 -0.067679926 
   61400    2.6679778  0.065140798    21.642284    24.350699  0.032917552 
   61500    3.3244451   0.03765718    21.700142    25.031463   0.10077334 
   61600    3.2284653 0.0036531287    21.845942    25.048168  0.016171318 
   61700     3.567074 0.0095760841    21.772385    25.316007  0.085846558 
   61800    3.6129017  0.022770904    21.490098    25.092318 0.0020933242 
   61900    3.0264784  0.025508916    21.665723    24.689688 0.0063572177 
   62000    2.6114349  0.021257658    21.382319    23.990832  0.065987099 
   62100    3.1788929 0.0070020229    21.995556    25.152016   0.16698252 
   62200    3.1168895  0.070636434    21.367351    24.526017  0.085073001 
   62300    3.0515773  0.032216321    22.052864    25.108402 0.0021493301 
   62400    3.2944045   0.09377207    21.781879    25.139552 -0.050145498 
   62500    3.0683962  0.022193919    21.364215    24.426394  0.093713071 
   62600    3.5882737  0.080700375    21.876739    25.512488  0.019568688 
   62700    3.5618859   0.01672265    21.672783    25.218411 -0.029631607 
   62800    2.8180658   0.02859992    21.480973    24.301546 -0.00079280928 
   62900    3.5465383 0.0096972461    21.326476    24.849873   -0.1151553 
   63000    3.2448175  0.013984253    21.521402    24.750159   0.10588924 
   63100    3.5146335  0.015167359    21.623985    25.121243 -0.019021131 
   63200    2.7038126  0.068246882    21.435906     24.18293  0.062874232 
   63300    3.0666236  0.017025781    21.707824    24.763078    -0.134178 
   63400    2.6700337  0.067907468    21.663907    24.377125  -0.22764603 
   63500    2.9547178 0.0030586348    21.689253    24.619671 -0.081680689 
   63600    2.8968563  0.014708099     21.54094    24.425682 0.0083906731 
   63700    3.4661725  0.025003298    22.008983    25.468065  -0.11993026 
   63800    3.2444674  0.035420358    21.338008    24.587854   0.03757619 
   63900     2.735207  0.041559054    22.111817    24.863257 0.0061941621 
   64000    2.8992259  0.050526974    21.668633    24.591541   0.14209699 
   64100    2.5896055  0.057207719    22.162857    24.785692  0.047871411 
   64200     3.159147  0.020920592    21.303749    24.454566 -0.022152597 
   64300    3.0408355 1.6259127e-05    21.712168    24.724864  -0.13886397 
   64400    2.9249537 0.0053576385    21.523637    24.426865 -0.037383739 
   64500    3.6423787  0.097858986    21.846199    25.552711 -0.019180393 
   64600    3.3474495 0.0011785244    21.837482    25.155115 0.0080028986 
   64700    2.7457547  0.005969896     21.45579    24.182091  0.084586247 
   64800    3.2608168 0.0062628945    21.462153     24.69904 -0.055886629 
   64900    3.3312421  0.040191905    21.433439    24.774028  0.091787178 
   65000    3.6238188  0.053394354    21.939683    25.583342  0.045763656 
   65100    3.2041224  0.019218604    21.984114    25.177787  -0.11720669 
   65200    3.5293711  0.013105092    21.893738    25.403535  -0.10019015 
   65300    3.1193948  0.025781225    21.606734    24.723026 -0.024016659 
   65400    2.7828358  0.027036392    22.111539    24.895644  -0.11256539 
   65500    2.6949785   0.06335528    21.767064    24.500444 0.0010571699 
   65600    2.7394704  0.071904241    21.798334    24.584344  0.024098376 
   65700    3.3787665 0.00092950527    21.790924    25.139335 -0.004351547 
   65800    3.5618131 0.0070633939     21.95008    25.485977 -0.076248394 
   65900    2.8928841  0.011914446    21.354545    24.232557   0.11819955 
   66000    3.2208425  0.024690013    21.618757    24.834467 -0.020915288 
   66100    2.8119237  0.026892392    21.747311    24.560091 -0.038510753 
   66200    3.4023369  0.034967525    21.880355    25.286156  -0.11827904 
   66300    3.1310128  0.057447413    21.571564    24.731033 0.00097612879 
   66400     2.846452  0.030986027    22.437473    25.288555  -0.19683122 
   66500    2.8388617  0.050367286    21.824511    24.687454 0.0083796382 
   66600    2.9803377  0.035160107    21.527136    24.515038  0.011094175 
   66700    3.0215322  0.029580464      22.0663    25.089435  -0.13762013 
   66800    2.8229028  0.092028321    21.611549    24.500343  0.034726636 
   66900     2.855354  0.021350644    21.583289    24.433555   0.05019158 
   67000     2.926472  0.019490066    21.655469    24.574334   0.05621417 
   67100    2.8315334  0.024748429    21.628488    24.458552  0.050896426 
   67200    3.0332421 0.0080049078    21.633552    24.646714  0.013607683 
   67300    3.2705548  0.021075145    21.667225    24.928572  0.060017222 
   67400    2.6466002  0.016383769    21.725654    24.364133  -0.11782145 
   67500    2.8628227   0.16495411    21.840332    24.841601  0.042647003 
   67600    3.2807061  0.007368652    21.720609    24.978307   0.10494285 
   67700    2.7880445  0.049804021    21.904356    24.716389  0.064348705 
   67800    2.9268036  0.029954895    21.827067    24.756726  -0.15391649 
   67900    3.0586055  0.093658232    21.575129    24.699072 -0.017227741 
   68000    3.3553573  0.093339635    21.630591     25.04822  -0.10205587 
   68100    3.5968855  0.028434432    21.585282    25.177297 -0.062764691 
   68200    2.6038307  0.029785806    21.635625    24.245132 -0.018784824 
   68300    3.3780589  0.074923445    21.899499    25.321203 -0.052275367 
   68400     2.840761  0.033578482     21.52343    24.371466   0.12471668 
   68500    2.9902439   0.06978718    21.365089    24.397433 0.0087470168 
   68600    2.8549597   0.01673443    21.712442    24.557701 -0.081402033 
   68700     2.613708  0.025149314    21.815523    24.430179    0.0105235 
   68800     2.697348  0.041250732    21.424781    24.138404 -0.087416907 
   68900    3.3287976  0.072694742    21.531595    24.902265   0.11099538 
   69000    3.3143111  0.010045726    21.762053    25.055722 -0.084987447 
   69100    2.4794808 0.0084549383    21.437659    23.902636   0.11089116 
   69200    3.2773089  0.034890172    21.677063    24.958917 -0.0033362977 
   69300    2.9048209  0.032821948    21.801209    24.711956 -0.045860634 
   69400    3.2035554  0.015127328    21.853525    25.042546   0.10440857 
   69500    2.8786157  0.046082244    21.662609    24.560653  -0.10525152 
   69600    3.1018995 0.0064929194    21.536753    24.616424  0.014251163 
   69700    3.1501071  0.013149478    21.726946    24.861035  0.059412689 
   69800    3.0421723  0.057596896    21.786021    24.857621   0.11927282 
   69900    3.4206963  0.029514339    21.577936    24.996474 -0.034867305 
   70000    2.5720641 0.0079949136    21.758986    24.315229  0.053975835 
   70100    2.8023009 0.0085891746    21.683092    24.468035  0.067844842 
   70200    2.9648709  0.058016709    21.808169    24.803604     -0.16118 
   70300    3.0118863  0.011341409    21.608378    24.603718 -0.015008922 
   70400    3.4659027  0.074870893    22.145582    25.654264   0.12195253 
   70500    2.8561332  0.079053656    21.563075    24.471817 -0.085192706 
   70600    3.2733496   0.04162864    21.592302    24.876971   0.10037858 
   70700    3.2626151  0.014580411    21.818706    25.065692  -0.16742208 
   70800    2.5772132   0.19372151    21.670972    24.418043 -0.0030861154 
   70900    2.8325672   0.04682863    21.593615    24.446784 -0.024462262 
   71000    3.0074217  0.019009246    21.119184    24.117768   0.13716245 
   71100    3.2126415 0.0022333066    21.732907    24.918035  -0.17911924 
   71200    2.8796917   0.03619692    21.921498    24.810723 -0.060922515 
   71300      3.13561  0.036153653    21.654132    24.796862   0.13965228 
   71400    3.0139069 4.5283055e-05    21.839974     24.82602 -0.087805335 
   71500    2.7752033 0.0086629952    21.864746    24.622916 -0.013198748 
   71600    3.0938071  0.018802999    21.643536      24.7275  0.094703495 
   71700    3.5693758   0.01072903    21.714269    25.261324 -0.077376005 
   71800    3.3544528   0.14260703    21.603151    25.069151  0.044503934 
   71900    2.8286819  0.019042606    21.400023    24.221556 -0.022509537 
   72000    2.7905406 0.0061539302    21.691957    24.462813  -0.12119651 
   72100    2.8961993   0.10029844    21.668112    24.637793 -0.0085574444 
   72200     2.932284  0.036890472    21.535771    24.477795 -0.020869195 
   72300    3.0382838 0.0075720782    21.727463    24.745186 -0.063560706 
   72400    2.8551431  0.026395626    21.627201    24.482303 -0.0001597289 
   72500    3.5643849   0.03649061    21.198435    24.766307  0.045568904 
   72600    2.9527092   0.02725455    21.372187    24.324811   0.14385757 
   72700     2.793847  0.030848418    21.533906    24.332733  0.065625732 
   72800    2.8955993  0.021690936    22.049202    24.939682   -0.1935983 
   72900    2.4992379  0.017794686    21.590559     24.08445 -0.062997455 
   73000    2.5145872  0.068371563    21.564777    24.124452  -0.12712655 
   73100    2.9391976  0.036737002    21.710546    24.659265  0.046414669 
   73200    3.0938389  0.024335203    21.789379    24.878907   0.18925736 
   73300    2.7479949  0.029697245    21.808547    24.560795  -0.12335196 
   73400    2.8466069  0.086523696    22.140207     25.04698  0.082746465 
   73500    2.8554462  0.012708989    21.896832    24.738548 -0.054180458 
   73600    3.1861295  0.062298452    22.013546    25.232473  0.010486001 
   73700    2.7831604  0.061852743    21.364103    24.183347  -0.14262906 
   73800     3.317747  0.021024189    21.594576    24.902627 -0.038262584 
   73900    3.3959314  0.062909025    21.798299    25.225696 -0.075935566 
   74000    2.9076654  0.098220889    21.559051    24.538015  0.029329139 
   74100    2.8862899   0.12321309     21.89461    24.877388  0.089821156 
   74200    2.7543533   0.01416918    21.922266    24.665285 -0.018173918 
   74300    3.0345039 0.0095983081    21.601825     24.61783   0.05685424 
   74400    2.9591019  0.021445393    21.818026    24.771174   0.11109496 
   74500    2.9431104  0.059383613    21.638808    24.614051  0.011998763 
   74600    2.5352392   0.13327103     21.99383    24.638866 0.0025967242 
   74700    3.3889681  0.011122119    21.513529    24.882239  0.090904221 
   74800    2.9132874  0.011556901    21.573225    24.471094 -0.060134465 
   74900    2.8664512 0.0063238518    21.701281    24.547514    0.1118403 
   75000    2.7668754  0.029048835    22.114168    24.884473  0.091845498 
   75100    2.7985739   0.06006111    21.878378      24.7111 -0.015967759 
   75200    2.9223191  0.098968101    21.601677    24.595906  -0.20552678 
   75300    3.0227081   0.01794249    21.834524    24.847187 -0.059124661 
   75400    3.4480057  0.019517721    21.726801    25.162398 -0.073940213 
   75500    2.7732454  0.033209716    21.725123      24.5059  0.089346245 
   75600    3.1263331  0.027510787    21.666839    24.791735 -0.018458849 
   75700    3.3250987  0.049654964    21.532311    24.876277  0.019595688 
   75800    3.1237811 0.0088917446    21.647042    24.750791 -0.044411778 
   75900    3.4158147  0.014742197    21.357554    24.756483    0.1072351 
   76000    3.3002916  0.031896413    21.844521    25.146151 -0.045417751 
   76100    2.7183418 0.0080281968    21.506068    24.207269 -0.0067542002 
   76200    2.0424577  0.034307134     21.91567    23.973524  0.043819423 
   76300    2.6227532  0.033057962    21.460582    24.092109  0.065133473 
   76400    2.9765861  0.018191389    21.617947    24.585164   0.02641195 
   76500    3.5624453 0.0053209718    21.736489     25.27127 -0.021221565 
   76600    3.0551235  0.068761757    21.965661    25.061258 -0.035979442 
   76700    2.9772012  0.001673811    21.486282     24.43759 -0.0081825746 
   76800    3.5028514 0.00010277088    21.649962    25.120482 0.0011336191 
   76900    3.1269637  0.054038218    21.651763    24.803811 -0.026623705 
   77000    3.0111476  0.022028395    21.591379    24.596674 -0.078276369 
   77100    2.8665364   0.23087996    21.682638    24.753512   0.20236159 
   77200    2.8536694  0.048621595    21.839821    24.715689  -0.13931783 
   77300    2.8028804  0.015172502    21.319737    24.111838   0.04073029 
   77400    3.1413867   0.11040589    21.482975    24.705681   0.12248723 
   77500    3.2353081  0.042395841    21.787338    25.035086   0.13292338 
   77600    2.7455002  0.042667787    21.418394    24.181141 -0.024740344 
   77700    3.2799777  0.015961965    22.042744    25.308313   0.13138986 
   77800    3.2495319   0.06911152    21.820752    25.109307  0.053183791 
   77900    2.7698013  0.094507837    21.536441    24.375104  -0.14928429 
   78000    3.4941933   0.10360408    22.130559    25.696003  0.055291192 
   78100    3.2108626  0.037542501    21.672598    24.891273   0.07212568 
   78200    3.3038482  0.045932256    21.564049    24.883238  -0.02507613 
   78300    2.6120341  0.039189549    21.475856    24.102894  0.028168863 
   78400    2.6574749  0.017271427    21.382483    24.032623  0.014343446 
   78500    3.0299241 0.0045108176    21.644612    24.650992 0.0026180616 
   78600    3.8557184   0.16004572    21.562017     25.54208 0.0041987474 
   78700    3.0369448  0.017254149    21.403594    24.429674 -0.081476748 
   78800    3.1647994  0.023720943    21.788913    24.948129 -0.0077439526 
   78900    3.2249352  0.041069499    21.828464    25.064608 -0.092542118 
   79000    2.6365986 0.0071693188    21.614997    24.234352    0.1058314 
   79100     3.083104  0.015020974    22.014163    25.083741 -0.016760668 
   79200    3.0831524  0.091554177    21.439838    24.585997  0.061383577 
   79300    3.1654064  0.088032416     21.94818    25.172309 -0.099835296 
   79400    2.9420764   0.01077467    21.521217    24.446826   0.11795017 
   79500    2.9577653 0.0087139324    21.745064    24.684157  0.072646077 
   79600    3.2002466   0.02989482    21.641457    24.841966 -0.064110649 
   79700    3.0016666 0.0069199132    21.757243    24.738037 -0.028901024 
   79800    2.9971478  0.022199429    21.394847    24.386443 -0.087037129 
   79900    2.7292529   0.11853419     21.40999    24.232506  0.062156743 
   80000    2.9373616  0.043960754      21.5092    24.463324 -0.022076733 
   80100    2.6949195  0.062071068    21.953162      24.6852 -0.057970854 
   80200     2.566956  0.018491174    21.693072    24.254751 -0.0075818022 
   80300    2.8507945 0.0039034539    21.978223    24.806525   0.14921887 
   80400    3.3572561  0.090666916     21.47112    24.887957   0.19083848 
   80500    2.9907029 0.0085254451    21.536941    24.508478  0.055842753 
   80600    2.8302398  0.032087989    21.912078      24.7482  -0.10812611 
   80700    3.0089498  0.027172178     21.54813    24.556391  -0.12545323 
   80800    3.3018127 0.0032402066    21.554293    24.828773  -0.11768588 
   80900    3.3436804  0.040255887    21.521169    24.874145  0.033397775 
   81000    3.6623238    0.1207919    21.855484    25.604689 -0.0037086083 
   81100    3.1149286  0.035273999    21.780767    24.902128   0.11239858 
   81200    3.1309999   0.10499478     21.74676    24.953764   0.14001706 
   81300    3.5541038  0.038245258    21.550938    25.110379 -0.0049499858 
   81400    3.1345537     0.006277    21.842001    24.953808    0.2093801 
   81500    3.2712176  0.031167057    22.157179    25.429275 -0.044036251 
   81600    2.4171671  0.029761926    21.600827    24.025375 -0.0084582594 
   81700    2.6736575  0.017339056    21.699398    24.365639 -0.041899914 
   81800    2.7952125  0.076349576    21.632448    24.478128 -0.077755297 
   81900    3.0756598 0.0041986804    21.474751    24.526131  0.017217589 
   82000    2.8218224  0.068097376    21.752114    24.615906    0.1181977 
   82100    3.0515408  0.023737597    21.879978    24.927001 -0.076064048 
   82200    3.3789668  0.014432536    21.738643    25.100755  -0.16658229 
   82300    2.9326539    0.0223774     22.16449    25.092367 -0.052043677 
   82400    3.4276512  0.075322265    21.558965    25.030201  0.014545279 
   82500    2.8571964  0.025184883    21.695267    24.551193  0.054128929 
   82600    2.9309092  0.066694258    21.821027    24.791492   0.13056076 
   82700    3.4044571  0.038052141    21.626939    25.037925  0.037474381 
   82800    3.2272209  0.057058747    21.505007    24.759405 -0.0032977198 
   82900    2.9224296  0.084455635    21.525192    24.505018 -0.022228582 
   83000    2.6782033  0.076700131     21.22617    23.956275  0.058542282 
   83100    2.5732467  0.099286684     21.61379    24.262497  0.067549652 
   83200    2.7544641  0.097055118    21.518842    24.344857 -0.026445464 
   83300    2.5304442  0.081341082    21.264882    23.853237  0.045006431 
   83400     3.084282  0.016512355     21.34459    24.416826  0.007386001 
   83500     3.109752  0.015485755     22.18504    25.281484 -0.0042465035 
   83600    2.9546567   0.02227886    21.825867    24.775445 0.0082211531 
   83700    3.0811547   0.13886104    21.459121    24.650608 -0.014533937 
   83800    3.2369192  0.035500871    21.365841     24.60829 -0.022105229 
   83900    3.0620265   0.03172694    22.306559    25.371961 -0.098330862 
   84000    3.6808072  0.023581445    21.853148    25.523455   0.06172106 
   84100    2.9364547   0.12639759    21.524968    24.560631  0.089485726 
   84200    3.4672384  0.070346312    21.613161    25.118642 -0.077196171 
   84300    2.7731608  0.039476673     22.06922     24.85618 -0.095559882 
   84400    3.1995228  0.050775122    21.942071    25.162744  0.092884561 
   84500    2.7912485    0.1098983    21.679606    24.554908  0.043518841 
   84600    3.6527551  0.047856123    21.779829    25.446619 -0.011295387 
   84700    2.7309469   0.16162999    21.504224    24.371515  0.070181104 
   84800    2.7808365  0.078285593    21.419475    24.252848  0.069188074 
   84900    2.8877792  0.094753288    21.161317    24.117111    0.2082782 
   85000    2.6983797 0.0098899965    21.987252    24.670537  0.098889996 
   85100    3.0698623  0.017768339    22.005568    25.064774  0.057910111 
   85200    3.1629859  0.011371357    21.485052    24.630122 -0.036883046 
   85300    2.9770286   0.25637881    21.869514    25.075356  -0.11418862 
   85400    2.9503311   0.10906104    21.789796     24.82187 -0.0094211179 
   85500    3.1568888  0.036830507    21.452332    24.616821    -0.046584 
   85600    3.1307995  0.068344274    21.327569    24.497724   0.14522762 
   85700    3.0397477  0.036443408    21.784975    24.833021 -0.069174446 
   85800    2.4903839  0.038582449    21.827976    24.333883  -0.12463562 
   85900    3.1239333  0.013319132    21.643863     24.75219   0.10795767 
   86000    3.2307916  0.018542841    21.795246    25.014666  0.064315386 
   86100    2.6696579  0.028425922    21.747219    24.420584 -0.018675989 
   86200    2.9650266   0.02494962    21.692059    24.654582  -0.10855171 
   86300    3.5103621   0.04043293    21.754891    25.273183 -0.019193167 
   86400    2.9813571  0.023449789    21.644512    24.621713  0.018678392 
   86500    2.8996716 0.0071746113    21.664395    24.544392  0.054713273 
   86600    3.2307043  0.023167647    22.061835    25.285793   0.13306519 
   86700    2.7542089 0.0015691074    21.491628    24.221904 -0.060425338 
   86800     3.159161    0.0546711    21.726429    24.911009  0.028622014 
   86900    3.6470753  0.023033279    21.602783    25.239122  0.055863601 
   87000    3.0324507  0.019955297    21.524253     24.54858  0.044514092 
   87100    3.0683656 0.0015187499    22.184204    25.225678 -0.096360326 
   87200    2.8750585  0.019681728    21.635097    24.503216  0.054680746 
   87300    3.3380345   0.14377966    21.787143    25.238049  0.053184704 
   87400    3.0784046  0.040698905     21.43119    24.521789   -0.1802006 
   87500    3.7798931    0.1112649    21.829565    25.685723  0.072449835 
   87600    3.6499165 0.0085803941    22.072403    25.697104 -0.032158462 
   87700      2.76063  0.019666237    21.782631    24.537365  0.011669086 
   87800    3.5747611  0.028097886    21.304272    24.874032  0.026760439 
   87900    2.4630442  0.043629797    21.499436    23.983304 -0.045057518 
   88000     2.845412  0.051418148    21.711912    24.582396   0.15665688 
   88100    2.9107991  0.011679609    21.559194     24.45472  0.045663123 
   88200    3.0174991  0.075490431    21.410589    24.475638   0.04793961 
   88300    2.4351937 0.0042126524    21.567104    23.983962  0.020195311 
   88400    2.3279236 0.0035545078    22.016161    24.326084   0.04043144 
   88500    2.8368332  0.066623459    21.498212    24.375401  0.021282812 
   88600    3.1677605  0.087009218    21.915444    25.140883 -0.071362832 
   88700    3.6465523  0.015451301    21.779109    25.407348  0.051875424 
   88800    3.0595046  0.085857783    21.845582    24.962615   0.03735987 
   88900    2.8154496  0.032645027    21.374005    24.196031  0.070919098 
   89000    2.7682626   0.02625479    22.317608    25.086494  0.037956734 
   89100    3.2452076   0.13552005    21.621178    24.971858 -0.040530281 
   89200    2.9125238  0.020205356    21.745572    24.651333  -0.12367958 
   89300    2.8877654  0.072982543    21.831748    24.765757  0.027823696 
   89400    3.0850089  0.046676234    22.056999    25.160119 -0.0083578713 
   89500    2.9657223   0.15088925    21.670154    24.759305 -0.023657056 
   89600    2.9229642  0.068506096    21.876797    24.841202   0.11274557 
   89700    2.7789675  0.019329783    21.739965    24.512531  0.025507686 
   89800     3.066466 0.0062934663      21.8296    24.873967 -0.046373187 
   89900    3.2098885  0.051745514    21.945879    25.177791 0.00095737112 
   90000    3.1119138  0.016184644    22.018767    25.118052 -0.046019505 
   90100    3.0217437  0.033558579    21.814905    24.842228 -0.046511649 
   90200     2.727099  0.040679225     21.45934    24.201868 -0.045032534 
   90300    2.7962084   0.11115619    21.277377    24.158851 0.0077771308 
   90400    3.1021761  0.027830175    21.408623    24.509906  -0.04756043 
   90500    3.2948369  0.041244154      21.2338    24.539374   0.04095912 
   90600    2.7384234  0.075388494    21.815385    24.603841   0.11289445 
   90700    3.2952635  0.027580656    21.495332    24.787665 -0.090912786 
   90800    3.2660453  0.039045766    22.175444    25.450294  0.014925757 
   90900    3.2959431    0.1089137    21.425217    24.799556  0.027900603 
   91000    2.7896928  0.055758613    21.648389     24.46801  0.037080392 
   91100    2.5931454  0.023446402    21.751059     24.34364 -0.081067982 
   91200    2.9027476  0.031275993    21.582304     24.48945  0.018623968 
   91300    3.6455153 0.0023674922    21.606727    25.220855 -0.028305229 
   91400    3.3232077 0.0022496016    21.807582    25.102269  -0.12429472 
   91500    3.1256896 0.00010054332    21.689859    24.786707  0.035826777 
   91600    3.1246432 0.0015812248    21.834931    24.932224  0.019396129 
   91700    3.4784307  0.093951436    21.274899    24.815074 -0.013660189 
   91800    3.1813791 0.0010407321    21.780177     24.93314    0.1420621 
   91900    3.2066061            0     22.13863    25.315545   0.05251111 
   92000    3.0597486 3.4012298e-05    21.908289    24.939741  -0.21892355 
   92100    3.6181761  0.022926354    21.908974    25.516575  -0.10547619 
   92200    2.7610262  0.012344492    21.575065    24.322871  0.040325278 
   92300    2.8280472   0.10457888    21.429517    24.335957 -0.0024778387 
   92400    3.2871536  0.032246092    21.608581    24.897544 -0.011440366 
   92500    3.3359861  0.053377311    21.855539    25.214013   0.11611837 
   92600    2.9512744  0.038479421    21.957068    24.919495  0.041150063 
   92700    2.7716561  0.074340609    21.426635    24.246968  0.078226858 
   92800    3.2434161  0.089125027    21.503062    24.805572 -0.049236276 
   92900    3.1018567   0.15465863    21.442771    24.670566 -0.0052783603 
   93000    3.0123743   0.12508413    21.715774     24.82534   0.16153111 
   93100    2.8308824  0.023329941    21.346306    24.174306 -0.039276461 
   93200    3.0769477  0.062200434    21.780278    24.890936 0.00013236676 
   93300    3.3823776   0.14875238    21.561005    25.060817 0.00040860671 
   93400    2.9732914  0.049573936    21.543217    24.538552  0.025708202 
   93500    3.1127039  0.099904312    22.048143     25.23193  0.068112029 
   93600    2.5621976 0.0095232553    21.601436    24.149432  0.013438944 
   93700    2.7091634  0.027287419    21.672245    24.383611   0.17579956 
   93800    2.9790205  0.017335936    21.960593    24.929365 -0.042518962 
   93900    2.8331299  0.031075443    21.450975    24.288948   0.20454136 
   94000    3.3283288   0.02965787     21.41754    24.744709  0.037716973 
   94100    3.0201803  0.002758137    22.109434    25.104408 -0.091611565 
   94200    3.0203682  0.033694187    21.288108    24.314204  0.036013434 
   94300    3.2146978   0.22247444     21.93625    25.343657  0.072968669 
   94400    2.9626857  0.017755913    21.901587    24.854597 -0.042163399 
   94500    2.6956512  0.017716362    21.975051    24.663459  0.049125841 
   94600    3.8717964  0.040786866    21.580016    25.456749   0.22581106 
   94700    3.1132271  0.038463881    21.419211    24.542075  0.081186282 
   94800    3.1873738  0.045937334    21.588865    24.792664 -0.020397377 
   94900    3.0547286  0.011064587    21.887935    24.925443   -0.1237717 
   95000    2.5853138 0.0024095372     21.62479    24.188575 -0.084290714 
   95100    3.3004446  0.090801995    22.201243     25.56193  0.050323093 
   95200    3.3705561  0.036903002    21.788399     25.16465 -0.039746908 
   95300    3.0542193 0.0038185562    22.173647    25.203405 -0.025528591 
   95400    3.1074822  0.052406834    21.541426    24.672542 -0.042076424 
   95500      3.17813  0.059383172    21.408463     24.61655    0.1395198 
   95600    3.2282153  0.034894212    21.562314    24.795533  0.080602715 
   95700    2.7957143  0.010922162    21.496524    24.277275 -0.017881647 
   95800    2.4558677  0.022317839    21.431143    23.886589   -0.1520083 
   95900    3.0359666  0.080907689    21.786553    24.875317   0.12783069 
   96000    2.7786827 0.0020883006      21.9782    24.733242  -0.11245684 
   96100    3.2471235 0.0085009243    22.163776    25.389334  0.054195349 
   96200    2.6553744  0.020009812    21.384145    24.034942  0.077512837 
   96300     3.796372  0.023065121    21.641708    25.425994 -0.077286958 
   96400    3.5607711   0.15129346    21.715318    25.394413   0.08773749 
   96500    2.6256545  0.018640083     21.97502    24.595003 -0.061407896 
   96600    3.0100339   0.01691969    21.737105    24.736188  0.048842818 
   96700    3.3106146 0.0057000743    21.361954    24.647615  0.079852475 
   96800    3.0592681   0.16121099    21.553958    24.746111 -0.062721908 
   96900     2.670962  0.035165011    21.662506    24.343902   0.10544708 
   97000    3.4161723  0.011048147    21.820655    25.216245  -0.08398341 
   97100    3.6887833  0.065619997    21.685204    25.405452  0.083230208 
   97200    3.0773464   0.01430014    21.603519    24.666672 -0.015587411 
   97300    3.2972713   0.13248202    21.577084    24.976307  0.064401584 
   97400    2.6986144  0.042490855    21.253854    23.969972  0.061148432 
   97500    2.8626599  0.044873028    21.488723     24.36975 -0.045199138 
   97600    2.7486583  0.070724561    22.140466    24.934399  -0.10048462 
   97700    3.1399548   0.14506569    22.096421    25.352367  0.008683491 
   97800    3.0428278  0.020323894    21.392743     24.42772  0.053713188 
   97900    2.8839832  0.084998638    21.489792    24.432071  0.082665587 
   98000    3.0108251  0.060284097    21.998055    25.041286  -0.31566871 
   98100    2.6750846  0.078103568    21.711262    24.439681   0.10371907 
   98200    3.0815373  0.055187794    21.886076    24.994269 -0.016009591 
   98300    2.8492985            0    21.831413    24.654329 -0.051549385 
   98400    2.6923778  0.024166904    21.679106    24.370721 -0.023143808 
   98500    3.1090562 0.0052932256    21.731166    24.816728  0.094229826 
   98600    3.0914959   0.08780686    21.213725    24.364403  0.065745813 
   98700    3.3501438 0.0099192208    21.587001    24.916044  0.040264611 
   98800    2.7627667  0.082252988    21.289959    24.109397   0.00612496 
   98900    2.8230415   0.08472622    22.561844    25.443473   0.11679726 
   99000    2.7981914 0.0032420898     21.65791    24.433435 -0.077488333 
   99100    2.9107192  0.086474896    22.632785    25.603028  -0.20439762 
   99200    3.2031788  0.043986529    21.774262    24.991768  -0.10538723 
   99300    2.9338689  0.031404964    21.810595    24.748704 -0.048541221 
   99400    3.3944927  0.025362854    21.558798    24.947223   0.12907483 
   99500    3.0522975   0.08132725    21.831549    24.936911  0.023120716 
   99600    2.9084372 0.0067446518    21.560708     24.44896  -0.12756583 
   99700    2.7711462  0.040148611    21.985714     24.77135 -0.0075509298 
   99800     3.009387  0.090043035    21.396454    24.468019  0.077620251 
   99900    2.9263108   0.11636955    21.166475     24.18206    0.1727267 
  100000    3.2247204    0.0328194    21.877122    25.104803  -0.10010473 
  100100    3.5231435  0.099804966    21.822655    25.412981 -0.051377757 
  100200    2.7956707  0.016986543    21.597221    24.383992  0.057664521 
  100300    2.8125645  0.074799921    21.284742    24.146064 -0.0027234391 
  100400    3.0219309  0.038749684    21.593435    24.626135   0.21582417 
  100500    3.3153745  0.080028487     21.76444    25.129145 -0.078351343 
  100600    3.2837501 0.0034795193    21.535855    24.792679 0.0048154959 
  100700     2.575644  0.034522925    21.576003    24.162322   -0.2118669 
  100800    3.0339221  0.034822534    21.733616    24.774269     0.101861 
  100900    2.7769579  0.080357754    21.473402    24.305005  -0.10094145 
  101000    2.8664667  0.048475366    21.345009     24.23341  0.043018868 
  101100    2.9762256  0.040748741    21.736835    24.726252 -0.069241035 
  101200     2.919267 0.0010658941    22.309234    25.202537 -0.038894266 
  101300    2.8393696  0.019880258    21.236494    24.069453 -0.037695777 
  101400    2.8487939 0.0016267388    21.404145    24.228188  -0.13183064 
  101500    2.8337075  0.081913755    21.568455    24.457839 0.0062644282 
  101600    3.1261811  0.055563025    21.802201       24.955  0.060031161 
  101700    3.3388904  0.040660842    21.667982    25.016617   -0.1640358 
  101800    2.9282433  0.029755239      21.4223    24.353185  0.065338329 
  101900     2.598782  0.030208165    22.086783     24.69171 -0.075665984 
[...]
  240900    3.0679215  0.023344083    22.045383    25.108242  0.024981177 
  241000    3.2095522  0.027260723    21.886677    25.093772  0.052837644 
  241100    2.7184318  0.029273977    21.649043    24.371578 -0.025989004 
  241200    2.9089644  0.042112027    21.421908     24.34605  0.050712802 
  241300    3.4541444   0.02242178     21.50785    24.952434  0.067300558 
  241400    3.3838783  0.042633549    21.581979    24.977158  0.020538172 
  241500    2.6749429   0.02634325    21.789443    24.465961  -0.16142305 
  241600    2.8917507    0.1020741    21.649446    24.616495   0.16178868 
  241700     2.706473  0.049643771    21.684493    24.415549   0.10615673 
  241800    3.0942673  0.032865206    21.508241    24.606723 -0.055326398 
  241900    2.7299137  0.039766611    21.314519    24.058922  0.027301312 
  242000    2.7964435  0.075218447    21.406824    24.252593   0.16114367 
  242100    2.6995689   0.12215031    21.250913    24.047636  0.095719303 
  242200    2.7313196  0.089903178    21.622391    24.418324 -0.016027567 
  242300    2.9249429  0.043132765    21.935937     24.87693  -0.13331643 
  242400    2.5692435  0.053978422    21.581863    24.181296  0.049290067 
  242500    2.6638005  0.044301884     22.10861    24.792048   0.17773659 
  242600    2.7311274  0.027716363    21.670157    24.403713 -0.040064131 
  242700    2.9821282 0.0054883668    21.956768    24.916773   0.17415692 
  242800    2.9047942  0.084892077    21.649701    24.612491  0.053432716 
  242900    3.3210712  0.042487386    21.449324    24.782132 -0.095584334 
  243000    3.4222292   0.11722571    21.679892     25.18766 -0.0076258959 
  243100    2.5432501 0.0022907107    21.822007    24.343999  0.036254167 
  243200    3.0035156  0.058557485    21.910275    24.944537 -0.099420112 
  243300    2.8078411  0.010659603    21.340164    24.132666   0.12608968 
  243400    3.2530248  0.060918077    21.805718     25.08954  -0.03943172 
  243500     2.882187  0.066822977    21.386543    24.308866    0.1516078 
  243600    2.5094452  0.011107233     21.66335    24.160667 0.00070551491 
  243700    3.3500119  0.007885613    21.332452    24.659331 -0.0031497578 
  243800    3.5589553  0.075983085    21.857688    25.459673  0.076600823 
  243900    2.5467208 0.0069651599    21.750568    24.280673   0.13951511 
  244000    2.6185177  0.088130011    21.689382    24.371784    0.0286092 
  244100     3.449573  0.070824431    21.746551    25.235008  0.023705592 
  244200    3.5632898  0.043731133    21.721507    25.295534 -0.029594461 
  244300    3.1912561 0.0025488199    21.617095    24.781351 -0.0074960578 
  244400    2.9707606  0.092579219    21.288688    24.324521   0.09728224 
  244500    2.8526032  0.010219829    21.914302    24.750712  0.047643099 
  244600    2.5739116  0.038268907    21.398227    23.986575  0.044679307 
  244700    3.3311278   0.07541627    21.573929     24.94963 -0.0068601092 
  244800    2.9917172  0.048051788    21.959659    24.971727   0.04268838 
  244900    3.2404776 0.0046068762    21.497079    24.712159  -0.12512044 
  245000    2.6164518   0.15491342    21.719341     24.46648  0.088738865 
  245100    2.6209994   0.18495861     21.71595    24.497639  -0.11452954 
  245200    3.1735681 0.00034198283    21.583636    24.728162   -0.1292738 
  245300    2.7635279  0.071941019    21.728304    24.538184  -0.12086954 
  245400    2.7907488   0.06190317    21.850737    24.677549   0.11802742 
  245500    3.2479395  0.066416259     22.10024    25.384522   0.20632751 
  245600    2.9773655   0.12201539    21.993795    25.065607  0.092251169 
  245700    2.9101081  0.096074776    21.764958    24.744195 -0.042419571 
  245800    2.5411943  0.056010769    21.414128    23.987803 -0.097170017 
  245900    2.9755781  0.032420506    21.148375    24.128822  0.072344446 
  246000      2.83661  0.020898114    21.417669    24.248912 -0.034720031 
  246100    3.0064741  0.045704139    21.915744    24.940085  0.050414515 
  246200    2.6252752   0.12208606    21.948129    24.671182  0.015547844 
  246300    2.9684186   0.10865854    21.351469     24.40106 -0.043615048 
  246400    2.9392602  0.061743673    21.677465    24.651253  0.054831834 
  246500    3.1361679  0.043751184    21.446879     24.59776 -0.0054274397 
  246600    3.1681927   0.20751619    21.463006     24.80938   0.14469048 
  246700    3.0936366  0.061606647    21.849812    24.976411 -0.020722609 
  246800    3.3179512  0.049227468    21.562029    24.898486   0.11707961 
  246900    3.2605545  0.088025902    21.776806    25.095196  -0.13762729 
  247000    2.8003334  0.065595656    21.896465    24.736465   0.14151005 
  247100    3.1971849  0.055276781    21.740245    24.963104  0.031852486 
  247200    3.1023944 0.0032724735    21.720776    24.797717 -0.003685832 
  247300    3.3111129            0    21.520631    24.801085   0.14934301 
  247400    2.9139211  0.025266863    21.669812    24.582019     0.182616 
  247500     3.105501  0.028242959     21.47639    24.581379 0.0066907851 
  247600    2.7931238  0.090986877    21.353249    24.211498  0.097396832 
  247700    3.1375985 0.0094211128    21.579721    24.697689   0.10733923 
  247800    2.8882432 0.0014081818    21.826281    24.689189  -0.15457148 
  247900    2.6952441            0    21.516678    24.186966 -0.076423605 
  248000    3.3344589 0.0094301421     21.75665    25.069664 -0.027690295 
  248100    3.2181515  0.018736885    21.935406    25.142497  0.082661738 
  248200    2.8553825  0.014649889    21.993063    24.836657 -0.038487097 
  248300    3.0020114  0.075894094    21.545885    24.595994   0.10210273 
  248400    2.8925369  0.013244701    21.966506    24.845505 -0.051386347 
  248500    3.1084772  0.038866831    21.461536    24.580098  0.079559664 
  248600     2.689985 0.0076652625    21.460487     24.13323  0.029790738 
  248700     3.002113   0.05202183    21.473126    24.499463 -0.020146703 
  248800    2.6286527  0.023825959    21.722399    24.350539  0.035861487 
  248900    3.8688688  0.007773816    21.341661     25.18248 -0.011712418 
  249000    2.3254508  0.034519846    21.369981    23.708419 -0.053180255 
  249100    2.8262708  0.029950064    21.802254    24.632305   0.14202332 
  249200    2.6171565  0.021588238    21.511442    24.125954  -0.13269148 
  249300    2.8972024  0.033352006    21.591744    24.495472 -0.030697134 
  249400    2.9808257 0.0076128389     21.43046    24.391298  0.035888008 
  249500     3.033063  0.041969083    21.664101    24.711049   0.21764422 
  249600    3.2002386   0.04246555    21.753587    24.966659  0.044660859 
  249700    3.4993039  0.020865906    21.705538    25.193307  -0.19888238 
  249800    3.1865032  0.047715546    21.617986      24.8227   0.14450181 
  249900    2.8088381  0.036212411    22.214304    25.033347 -0.091538028 
  250000    2.9002031  0.016605137    21.844735    24.734689  0.053231913 
  250100    3.2566302  0.023670875    21.476799    24.726946  -0.13763181 
  250200    2.6132881   0.13921746    21.592799    24.321107 -0.036033459 
  250300    2.9021244  0.083282548     21.91356    24.872095 -0.070513272 
  250400    3.5587057  0.032371856    21.420961    24.979087  0.053730046 
  250500    3.3346141  0.067800499    21.669919    25.041458 -0.017305784 
  250600     3.074935  0.030907165    21.442716    24.520086 -0.046052929 
  250700    3.1596122  0.021227382    21.857233    25.008817  0.063646571 
  250800    2.9279898  0.027849485    21.903605    24.832333  0.094356199 
  250900    3.0815466 0.0044113636    22.087388    25.144813  -0.14459344 
  251000     3.110129  0.022095314     21.74472    24.848146 -0.089276774 
  251100    2.8633005  0.022495172    21.651071    24.510355  0.033177317 
  251200    3.1242387  0.040852453    21.811826    24.947989 0.0060438016 
  251300    2.9978541  0.037669835    21.724793    24.732559  -0.09149024 
  251400    2.4601465  0.099295353    21.886646    24.423308  0.071050163 
  251500    2.9712863  0.072605577    21.465803    24.482183   0.23561796 
  251600    2.9114005  0.045009215    21.554036    24.483488 0.0012502157 
  251700    3.1513162  0.095236552    21.714741    24.932115  -0.01012208 
  251800    3.2870231  0.057752632    21.876267    25.190608  -0.01909607 
  251900    3.2578089  0.032675013     21.61294    24.873259  0.055592312 
  252000    3.0053767  0.074277863     21.91117    24.962997 -0.056600772 
  252100    3.4799608  0.021416065     21.98994    25.459095  -0.16306946 
  252200    3.4591092  0.047698564    21.921108    25.395887  0.076632651 
  252300    3.4030008  0.027483499    22.241529    25.640504  0.048873054 
  252400    3.3502009  0.056586804    22.010821    25.386588  0.033999038 
  252500    3.4810853 0.0049366737     21.80307     25.25686 -0.040173529 
  252600    2.7153385  0.010211908    21.643823    24.344232 0.0083673079 
  252700    3.2558559 0.0094604466    21.767523    25.002692  0.027529253 
  252800    2.8642385   0.10614244    21.809873    24.753734  -0.10798387 
  252900    2.3904604  0.017418573    21.763644    24.149389   0.07163107 
  253000     3.340739  0.050457596    21.307305    24.667568  0.024502418 
  253100    3.3584051 0.0085408427    21.701541     25.03739  0.034875449 
  253200    3.0683969  0.059201037    21.728425    24.827612  0.022141595 
  253300    3.1031508 0.00075951049     21.78922    24.864397  -0.10279428 
  253400    2.8225235   0.04031582    22.024781    24.861486 -0.065995707 
  253500    3.2652742   0.00627147    21.344944    24.586256   0.11017466 
  253600    3.1703642   0.03212217    21.781752    24.954883  0.017234669 
  253700     3.187453    0.0403515    21.849735    25.048026  0.073160924 
  253800    3.1934104  0.017142641     21.54201    24.722994 -0.060229155 
  253900    3.1076075   0.01765945    21.316744    24.413237  0.068963568 
  254000    3.2213174 0.0098327242    21.815279    25.016602  0.019595164 
  254100    3.1154111  0.020786606     21.94628    25.053631  -0.16564786 
  254200    3.0317521  0.047544782    21.828999    24.880224    0.1398388 
  254300    2.8780755  0.027469881    21.800187    24.679083 -0.034854422 
  254400    3.4885465  0.059125333    21.706123    25.221494   0.16895733 
  254500    2.9241109  0.041282157    21.679667    24.617985 -0.041322613 
  254600     3.085687  0.099101596    21.736295    24.892513  0.039178313 
  254700    3.2004443   0.15953964    22.015426    25.345776   0.18103694 
  254800    3.2051006  0.010363937    21.421943    24.607731 -0.014191201 
  254900    3.2955859  0.036347128    21.868552    25.169971  0.035358023 
  255000     2.913349   0.13730449    21.640561    24.664239  0.045349688 
  255100     2.760441   0.16098689    21.391845    24.287713  0.039917464 
  255200     3.017464   0.10667128    21.567923    24.664119 -0.084704171 
  255300    2.8837597  0.051972285    21.619776    24.528807  0.028945643 
  255400    3.2932064  0.057794044    21.683892      25.0044 -0.039291973 
  255500    2.9318349  0.050160059    21.886098    24.840946  0.085453607 
  255600    3.1028719  0.049780432    22.235812    25.359734  -0.11737738 
  255700    3.0110681  0.046527234    21.487671    24.517386 -0.024656152 
  255800    3.4130171  0.014595259    21.313235    24.709246  -0.04469884 
  255900    3.6817814  0.033657154     21.79909    25.480438 -0.077297944 
  256000    2.9513812  0.075073143     21.81188    24.811007 -0.055336237 
  256100    3.2733119  0.022326427    21.483198    24.748528 5.6421902e-05 
  256200    2.9931965  0.045782099    21.704484    24.715747 -0.070871091 
  256300    2.5801088  0.046630711    21.573302    24.176152  -0.10577384 
  256400    2.8053754  0.048870633     21.71625     24.54452  0.034112849 
  256500    3.0943504  0.045513162    21.553574    24.664787  0.048246104 
  256600    3.3566384  0.058109364    21.462433    24.846101  0.072703151 
  256700     2.737041  0.050981525    22.016172    24.778851   0.02051715 
  256800    3.0977953   0.03665656    21.945601    25.051369  0.073858226 
  256900    3.5728016  0.055261707    21.696082    25.291064  0.089535844 
  257000    3.2169831  0.039705804    21.471268     24.69817   0.11422154 
  257100    2.7962622  0.009557508    21.680155    24.460083  0.061182902 
  257200    3.1226756  0.039540777    21.473393    24.606696   0.12501636 
  257300     3.412623  0.011160356    21.686018    25.078203  0.012458264 
  257400     3.352048  0.033915851     21.95272    25.307646   -0.1286949 
  257500    3.1003965   0.14684269    21.652971    24.871503 -0.019693344 
  257600    2.7087275  0.067826066    21.545863    24.297336 -0.072187543 
  257700    3.0730515  0.070867031    22.212906    25.328371 -0.092186761 
  257800    3.5040239   0.07159139    21.380911    24.924081 -0.0030317938 
  257900    2.7367777  0.033176446     21.55062    24.295233 -0.027044818 
  258000     3.103134  0.075866798    21.399698    24.549966 -0.030536248 
  258100    2.7553081  0.062783089    21.494871     24.28745  0.050111099 
  258200    3.3322591  0.058387251    21.636022    24.995814  0.079871867 
  258300    3.1392474   0.10192741    22.229303    25.441411   0.15512342 
  258400     2.714332  0.084043521    21.956968    24.730211   0.18311395 
  258500    3.1659718  0.068530709     21.71896    24.924148 0.0071452376 
  258600    2.4592301 0.0029786068    21.582765    24.022203  -0.09316073 
  258700    3.3343429  0.061738169    21.817645    25.182853 -0.057754004 
  258800    3.1089836  0.074749366    21.440216    24.595162  0.048016292 
  258900    3.3008373  0.059018094    22.011363    25.340655 -0.029364602 
  259000    2.8636349  0.048515144    21.738571    24.624206  -0.03517412 
  259100    2.6448921  0.032776732    21.295059    23.948238 -0.037637386 
  259200    2.7638318  0.063784043    21.678837    24.480862 -0.0023585229 
  259300    2.7763786  0.011016412     21.26863    24.030318  0.050334617 
  259400    2.7555396   0.05696421    22.115753    24.902742  -0.16038134 
  259500    2.9906487  0.082642594    21.702428    24.748029 -0.012928499 
  259600    3.1938263  0.024296033     21.61785      24.8064 -0.0028943062 
  259700    3.1824577  0.076855275    21.742684    24.972529   0.12744601 
  259800    3.0562043  0.067372998    22.113206    25.208485  0.043627249 
  259900    2.6475286  0.033599588    21.458927    24.115541 -0.034165629 
  260000    3.0197725  0.010355821     21.46532    24.467488 -0.0035740259 
  260100    3.1197857  0.011446905    21.832304     24.93465  0.041301027 
  260200    2.9272248  0.048103081    21.711253    24.659477  0.097046045 
  260300     2.924938  0.059649995    21.707078    24.664583  0.015061961 
  260400    2.9085443 0.0081782222    21.981258    24.871049  -0.15151149 
  260500     2.894939  0.031570074     21.56724    24.466944  -0.08051671 
  260600    3.0548055  0.097860909    21.496558    24.620939   0.17047038 
  260700    3.0266959  0.015309059    21.511264    24.525244 -0.066078833 
  260800    3.2182123  0.020430739    21.655532    24.864377 -0.077962771 
  260900    3.3290963  0.020726796    21.510879    24.829878   -0.1165882 
  261000    2.9223442    0.0702694    21.906716    24.872271   0.12961104 
  261100    3.0835374   0.12380131    21.327305    24.506093 -0.023930662 
  261200    2.7837617  0.018228235    21.724094    24.500309   0.10633196 
  261300     2.586765  0.016444538    21.580517    24.159775  0.053000803 
  261400     2.945895  0.034394738     21.42935    24.382363 -0.041274683 
  261500    2.9290136  0.054820213    21.446957     24.40367 -0.056089459 
  261600    2.8680757  0.068778951    21.554132     24.46443  0.021395807 
  261700    2.8892631  0.079531944    21.460771    24.402813 -0.019970423 
  261800    3.1019538 0.0087194104    21.241967    24.323919  0.054691082 
  261900    2.6232143  0.081795207    21.729499     24.41022  0.085949348 
  262000    2.8155661   0.15015349    21.911633    24.851282   0.10323611 
  262100    3.0491825  0.046780267    21.711853    24.779583  -0.11957933 
  262200    2.8900954  0.061149594    21.518952    24.443436 -0.032435794 
  262300    3.1106978   0.06616141    21.679445    24.827501  -0.04754929 
  262400    2.9533092  0.025336465    21.663595    24.614895  -0.10993081 
  262500    2.9943928  0.027719662    21.729317    24.723703 0.0013363247 
  262600     3.009808  0.025069564     21.83591    24.842919  0.012073091 
  262700    2.5455331  0.026609879    21.648608    24.197181 -0.016927947 
  262800    2.4151937  0.048124366    21.859293    24.300248  0.025510201 
  262900    3.0503128  0.011319747    21.558487    24.591875  0.092910497 
  263000    2.8055546  0.065288674    21.648117    24.492983   0.13537712 
  263100     2.695652  0.039504119    21.529143     24.23934  0.042173057 
  263200    3.0741702  0.012380192    21.419304     24.47739  0.065762458 
  263300    3.0282728  0.038602466    21.633567    24.672403   0.08920315 
  263400    3.1952541  0.044001413     21.65935     24.86902 -0.052035044 
  263500     3.332667   0.14437612    21.970622    25.416808 -0.028247659 
  263600    3.0245198  0.051177124    22.100787    25.148479 -0.078960531 
  263700    3.0449935  0.024543424    21.884399    24.925741 0.0051902754 
  263800    2.7079873    0.0159472    21.552968    24.251828 -0.037830908 
  263900    3.2023975  0.013636322     21.56918    24.755562 -0.055577341 
  264000    3.5021632  0.012755627    21.765679    25.248171 -0.026141678 
  264100    2.4193876  0.017626336    21.906409    24.321021  0.061071496 
  264200    3.1112636   0.12812364    22.084376    25.294955   0.12645553 
  264300    3.1006996  0.077238419    21.553043    24.702271   0.14815347 
  264400     3.104776   0.00601427    21.907189    24.989231 -0.073001823 
  264500    2.7843713   0.03140513    21.824478    24.614473  -0.14701436 
  264600    3.3462365  0.032588349    21.716107    25.063948   0.04836639 
  264700    3.4544099  0.051734211    21.608085    25.082243 0.0035951019 
  264800    2.6667927   0.10374543    21.393873    24.139719  -0.06333767 
  264900    2.5085932   0.02188955    21.378913    23.886168  -0.02690236 
  265000    3.1799041  0.049040549    21.777733    24.977234   0.15396154 
  265100     3.161664   0.01223557    21.449476    24.594101  0.055168743 
  265200    2.6159958  0.010022589    21.274951    23.876747  0.063981867 
  265300    3.3213427 0.0087887674    21.784412    25.083791   0.05837925 
  265400    3.0330426  0.039390178    21.822249    24.866598 -0.024043258 
  265500    2.6826457  0.036603922      21.5911     24.28551   0.12361251 
  265600     3.091341  0.092243007    21.768724    24.923684 -0.027969378 
  265700    2.9050668  0.085951856     22.00309     24.96721  0.019651268 
  265800    3.2443513  0.046505515    21.757927    25.018743 -0.0084100852 
  265900    3.7339592   0.16342743    21.466655    25.329468   0.11997614 
  266000    2.8480062  0.034491119    22.028853     24.88498 0.0029874109 
  266100    3.0817399  0.077946005    21.461331    24.592482  0.044713446 
  266200    2.3727067  0.084192924    21.449604    23.884534   0.24202864 
  266300    3.1631017  0.023451013    21.301718    24.458983   0.15102186 
  266400    3.2604399  0.012575921    21.506397    24.749224 -0.041910432 
  266500    3.2680264  0.027971119    21.500223    24.765961  0.023282468 
  266600    2.6657553  0.045536896    21.728316    24.414926 -0.017801559 
  266700    3.3235719  0.055717091    21.501064     24.84958  0.044589225 
  266800    2.7689549  0.015874178    21.497996    24.257187 -0.002266709 
  266900    2.8495549  0.089712648    21.568721    24.481604  0.073842563 
  267000    2.7805132  0.045643887    21.042585    23.842997 0.0018323175 
  267100    2.4505058  0.039960486    21.899643    24.367419 -0.043839533 
  267200    3.1408198  0.035433613    21.584933    24.732105 0.0010857615 
ERROR on proc 0: Bond atoms 62 63 missing on proc 0 at step 267201 (src/ntopo_bond_all.cpp:63)
Last command: run 500000
