LAMMPS Description					
					
108 atoms					
107 bonds					
2 atom types					
1 bond types					
					
-40 40 xlo xhi					
-20 20 ylo yhi					
-2 2 zlo zhi					
					
Atoms # id mol type xu yu zu					
					
1	1	1	-19.2982	0.00	0.00
2	1	1	-18.2982	0.00	0.00
3	1	1	-17.2982	0.00	0.00
4	1	1	-16.2982	0.00	0.00
5	1	1	-15.2982	0.00	0.00
6	1	1	-14.2982	0.00	0.00
7	1	1	-13.2982	0.00	0.00
8	1	1	-12.2982	0.00	0.00
9	1	1	-11.2982	0.00	0.00
10	1	1	-10.2982	0.00	0.00
11	1	1	-9.2982	0.00	0.00
12	1	1	-8.2982	0.00	0.00
13	1	1	-7.2982	0.00	0.00
14	1	1	-6.2982	0.00	0.00
15	1	1	-5.2982	0.00	0.00
16	1	1	-4.2982	0.00	0.00
17	1	1	-3.2982	0.00	0.00
18	1	1	-2.2982	0.00	0.00
19	1	1	-1.2982	0.00	0.00
20	1	1	-0.2982	0.00	0.00
21	1	1	0.7018	0.00	0.00
22	1	1	1.7018	0.00	0.00
23	1	1	2.7018	0.00	0.00
24	1	1	3.7018	0.00	0.00
25	1	1	4.7018	0.00	0.00
26	1	1	5.7018	0.00	0.00
27	1	1	6.7018	0.00	0.00
28	1	1	7.7018	0.00	0.00
29	1	1	8.7018	0.00	0.00
30	1	1	9.7018	0.00	0.00
31	1	1	10.7018	0.00	0.00
32	1	1	11.7018	0.00	0.00
33	1	1	12.7018	0.00	0.00
34	1	1	13.7018	0.00	0.00
35	1	1	14.7018	0.00	0.00
36	1	1	15.7018	0.00	0.00
37	1	1	16.7018	0.00	0.00
38	1	1	17.7018	0.00	0.00
39	1	1	18.7018	0.00	0.00
40	1	1	19.7018	0.00	0.00
41	1	1	20.7018	0.00	0.00
42	1	1	21.7018	0.00	0.00
43	1	1	22.7018	0.00	0.00
44	1	1	23.7018	0.00	0.00
45	1	1	24.7018	0.00	0.00
46	1	1	25.7018	0.00	0.00
47	1	1	26.7018	0.00	0.00
48	1	1	27.7018	0.00	0.00
49	1	1	28.7018	0.00	0.00
50	1	1	29.7018	0.00	0.00
51	1	1	30.7018	0.00	0.00
52	1	1	31.7018	0.00	0.00
53	1	1	32.7018	0.00	0.00
54	1	1	33.7018	0.00	0.00
55	1	1	33.7018	1.00	0.00
56	1	1	32.7018	1.00	0.00
57	1	1	31.7018	1.00	0.00
58	1	1	30.7018	1.00	0.00
59	1	1	29.7018	1.00	0.00
60	1	1	28.7018	1.00	0.00
61	1	1	27.7018	1.00	0.00
62	1	1	26.7018	1.00	0.00
63	1	1	25.7018	1.00	0.00
64	1	1	24.7018	1.00	0.00
65	1	1	23.7018	1.00	0.00
66	1	1	22.7018	1.00	0.00
67	1	1	21.7018	1.00	0.00
68	1	1	20.7018	1.00	0.00
69	1	1	19.7018	1.00	0.00
70	1	1	18.7018	1.00	0.00
71	1	1	17.7018	1.00	0.00
72	1	1	16.7018	1.00	0.00
73	1	1	15.7018	1.00	0.00
74	1	1	14.7018	1.00	0.00
75	1	1	13.7018	1.00	0.00
76	1	1	12.7018	1.00	0.00
77	1	1	11.7018	1.00	0.00
78	1	1	10.7018	1.00	0.00
79	1	1	9.7018	1.00	0.00
80	1	1	8.7018	1.00	0.00
81	1	1	7.7018	1.00	0.00
82	1	1	6.7018	1.00	0.00
83	1	1	5.7018	1.00	0.00
84	1	1	4.7018	1.00	0.00
85	1	1	3.7018	1.00	0.00
86	1	1	2.7018	1.00	0.00
87	1	1	1.7018	1.00	0.00
88	1	1	0.7018	1.00	0.00
89	1	1	-0.2982	1.00	0.00
90	1	1	-1.2982	1.00	0.00
91	1	1	-2.2982	1.00	0.00
92	1	1	-3.2982	1.00	0.00
93	1	1	-4.2982	1.00	0.00
94	1	1	-5.2982	1.00	0.00
95	1	1	-6.2982	1.00	0.00
96	1	1	-7.2982	1.00	0.00
97	1	1	-8.2982	1.00	0.00
98	1	1	-9.2982	1.00	0.00
99	1	1	-10.2982	1.00	0.00
100	1	1	-11.2982	1.00	0.00
101	1	1	-12.2982	1.00	0.00
102	1	1	-13.2982	1.00	0.00
103	1	1	-14.2982	1.00	0.00
104	1	1	-15.2982	1.00	0.00
105	1	1	-16.2982	1.00	0.00
106	1	1	-17.2982	1.00	0.00
107	1	1	-18.2982	1.00	0.00
108	1	1	-19.2982	1.00	0.00
					
					
					
					
Bonds					
					
1	1	1	2		
2	1	2	3		
3	1	3	4		
4	1	4	5		
5	1	5	6		
6	1	6	7		
7	1	7	8		
8	1	8	9		
9	1	9	10		
10	1	10	11		
11	1	11	12		
12	1	12	13		
13	1	13	14		
14	1	14	15		
15	1	15	16		
16	1	16	17		
17	1	17	18		
18	1	18	19		
19	1	19	20		
20	1	20	21		
21	1	21	22		
22	1	22	23		
23	1	23	24		
24	1	24	25		
25	1	25	26		
26	1	26	27		
27	1	27	28		
28	1	28	29		
29	1	29	30		
30	1	30	31		
31	1	31	32		
32	1	32	33		
33	1	33	34		
34	1	34	35		
35	1	35	36		
36	1	36	37		
37	1	37	38		
38	1	38	39		
39	1	39	40		
40	1	40	41		
41	1	41	42		
42	1	42	43		
43	1	43	44		
44	1	44	45		
45	1	45	46		
46	1	46	47		
47	1	47	48		
48	1	48	49		
49	1	49	50		
50	1	50	51		
51	1	51	52		
52	1	52	53		
53	1	53	54		
54	1	54	55		
55	1	55	56		
56	1	56	57		
57	1	57	58		
58	1	58	59		
59	1	59	60		
60	1	60	61		
61	1	61	62		
62	1	62	63		
63	1	63	64		
64	1	64	65		
65	1	65	66		
66	1	66	67		
67	1	67	68		
68	1	68	69		
69	1	69	70		
70	1	70	71		
71	1	71	72		
72	1	72	73		
73	1	73	74		
74	1	74	75		
75	1	75	76		
76	1	76	77		
77	1	77	78		
78	1	78	79		
79	1	79	80		
80	1	80	81		
81	1	81	82		
82	1	82	83		
83	1	83	84		
84	1	84	85		
85	1	85	86		
86	1	86	87		
87	1	87	88		
88	1	88	89		
89	1	89	90		
90	1	90	91		
91	1	91	92		
92	1	92	93		
93	1	93	94		
94	1	94	95		
95	1	95	96		
96	1	96	97		
97	1	97	98		
98	1	98	99		
99	1	99	100		
100	1	100	101		
101	1	101	102		
102	1	102	103		
103	1	103	104		
104	1	104	105		
105	1	105	106		
106	1	106	107		
107	1	107	108		
